# vtk DataFile Version 2.0
track0
ASCII
DATASET POLYDATA
POINTS 996 float
-1.001 -0.05 0.0011
-1.00075 -0.0499924 0.00106851
-1.00051 -0.0499849 0.00103703
-1.00026 -0.0499773 0.00100556
-1.00001 -0.0499697 0.000974104
-0.999764 -0.0499621 0.000942726
-0.999425 -0.0499516 0.000899841
-0.999086 -0.0499411 0.000856839
-0.998747 -0.0499305 0.000813916
-0.998408 -0.0499199 0.000771072
-0.998069 -0.0499093 0.000728296
-0.995314 -0.0498228 0.000381576
-0.992559 -0.0497353 3.93132e-05
-0.989803 -0.0496467 -0.000298525
-0.987046 -0.049557 -0.000631971
-0.984295 -0.0494663 -0.000960446
-0.981186 -0.0493607 -0.00133049
-0.978076 -0.049258 -0.00169736
-0.974966 -0.0491543 -0.00206066
-0.971855 -0.0490496 -0.00242034
-0.968748 -0.048944 -0.00277594
-0.965631 -0.0488393 -0.00312913
-0.962514 -0.0487332 -0.00348276
-0.959397 -0.0486268 -0.00383761
-0.95628 -0.0485201 -0.00419354
-0.953162 -0.0484131 -0.0045496
-0.949918 -0.0482997 -0.00492083
-0.946674 -0.0481902 -0.0052938
-0.943429 -0.0480808 -0.0056653
-0.940185 -0.0479717 -0.00603533
-0.93694 -0.0478632 -0.00640221
-0.934397 -0.047774 -0.00667806
-0.931855 -0.0476902 -0.0069586
-0.929312 -0.0476066 -0.00723718
-0.92677 -0.0475232 -0.00751395
-0.924295 -0.0474421 -0.00778059
-0.923806 -0.047426 -0.00783262
-0.923317 -0.04741 -0.00788454
-0.922829 -0.047394 -0.00793633
-0.92234 -0.0473779 -0.00798801
-0.921851 -0.0473619 -0.00803955
-0.918724 -0.0472599 -0.00836923
-0.915597 -0.0471593 -0.00869599
-0.912469 -0.0470605 -0.0090205
-0.909341 -0.0469636 -0.00934278
-0.906216 -0.0468686 -0.00966251
-0.905223 -0.0468387 -0.00976326
-0.90423 -0.046809 -0.00986393
-0.903238 -0.0467793 -0.00996444
-0.902245 -0.0467496 -0.0100648
-0.901248 -0.0467198 -0.0101654
-0.89881 -0.046647 -0.0104109
-0.896371 -0.0465735 -0.0106521
-0.893932 -0.0464993 -0.0108884
-0.891493 -0.0464242 -0.0111192
-0.889038 -0.0463477 -0.0113448
-0.886177 -0.0462633 -0.0115996
-0.883318 -0.046175 -0.0118695
-0.880458 -0.0460899 -0.0121378
-0.877599 -0.0460049 -0.012406
-0.874738 -0.04592 -0.0126742
-0.871645 -0.0458363 -0.0129483
-0.868553 -0.0457466 -0.0132326
-0.865461 -0.0456586 -0.0135133
-0.862369 -0.0455722 -0.0137908
-0.859275 -0.0454874 -0.0140652
-0.856183 -0.0454171 -0.0143325
-0.853092 -0.0453361 -0.0146025
-0.85 -0.0452588 -0.0148697
-0.846908 -0.045185 -0.0151342
-0.843816 -0.0451153 -0.0153948
-0.841716 -0.0450748 -0.0155604
-0.839617 -0.0450332 -0.0157328
-0.837518 -0.0449943 -0.0159029
-0.835419 -0.0449582 -0.0160708
-0.833535 -0.0449283 -0.0162193
-0.832469 -0.0449126 -0.0163025
-0.831403 -0.0448972 -0.0163854
-0.830336 -0.0448822 -0.0164682
-0.82927 -0.0448674 -0.0165509
-0.828203 -0.044853 -0.0166335
-0.824769 -0.0448107 -0.0168994
-0.821333 -0.0447634 -0.0171605
-0.817897 -0.0447141 -0.0174129
-0.814461 -0.0446624 -0.017655
-0.811005 -0.0446073 -0.0178854
-0.808124 -0.0445786 -0.018076
-0.805245 -0.0445513 -0.0182929
-0.802366 -0.0445265 -0.0185105
-0.799487 -0.0445071 -0.0187261
-0.796607 -0.0444927 -0.0189401
-0.793496 -0.0444862 -0.0191394
-0.790388 -0.0444849 -0.0193639
-0.787278 -0.0444868 -0.0195825
-0.784169 -0.0444919 -0.0197954
-0.781059 -0.0444986 -0.0200053
-0.777967 -0.0445153 -0.0201914
-0.774876 -0.0445308 -0.0203909
-0.771784 -0.0445482 -0.0205856
-0.768692 -0.0445682 -0.0207738
-0.765599 -0.0445906 -0.0209557
-0.762479 -0.0446141 -0.0211146
-0.759361 -0.044647 -0.021287
-0.756242 -0.0446823 -0.0214528
-0.753123 -0.0447199 -0.0216122
-0.750003 -0.0447599 -0.0217653
-0.746878 -0.0447997 -0.0218979
-0.743754 -0.0448443 -0.0220413
-0.740629 -0.0448909 -0.0221784
-0.737504 -0.0449396 -0.0223092
-0.734379 -0.0449902 -0.0224341
-0.731254 -0.0450385 -0.0225397
-0.72813 -0.0450943 -0.0226539
-0.725006 -0.0451511 -0.0227633
-0.721881 -0.0452088 -0.0228678
-0.718756 -0.0452674 -0.0229677
-0.715631 -0.0453228 -0.0230519
-0.712506 -0.0453824 -0.0231422
-0.709382 -0.0454417 -0.023228
-0.706257 -0.0455006 -0.0233093
-0.703131 -0.0455591 -0.0233862
-0.700006 -0.0456142 -0.0234527
-0.696881 -0.0456715 -0.0235211
-0.693756 -0.0457282 -0.0235857
-0.690631 -0.0457842 -0.0236466
-0.687507 -0.0458395 -0.0237039
-0.684866 -0.0458849 -0.0237471
-0.682226 -0.0459309 -0.0237904
-0.679585 -0.0459768 -0.0238322
-0.676945 -0.0460224 -0.0238722
-0.673561 -0.0460806 -0.0239214
-0.673225 -0.0460864 -0.0239261
-0.672889 -0.0460922 -0.0239307
-0.672553 -0.0460979 -0.0239352
-0.672217 -0.0461037 -0.0239398
-0.671881 -0.0461094 -0.0239443
-0.668755 -0.0461629 -0.0239863
-0.66563 -0.0462165 -0.0240264
-0.662505 -0.0462702 -0.0240649
-0.65938 -0.0463241 -0.0241021
-0.656255 -0.0463782 -0.0241383
-0.655218 -0.0463963 -0.0241503
-0.654181 -0.0464144 -0.024162
-0.653144 -0.0464326 -0.0241737
-0.652107 -0.0464508 -0.0241853
-0.651094 -0.0464686 -0.0241967
-0.649001 -0.0465057 -0.0242201
-0.646908 -0.0465429 -0.0242431
-0.644814 -0.0465804 -0.0242658
-0.642721 -0.0466182 -0.0242881
-0.640628 -0.0466562 -0.02431
-0.637503 -0.0467131 -0.0243429
-0.634378 -0.046771 -0.024375
-0.631253 -0.0468299 -0.024407
-0.628128 -0.0468897 -0.0244387
-0.625003 -0.0469504 -0.0244702
-0.621877 -0.0470119 -0.0245031
-0.618752 -0.0470744 -0.0245347
-0.615627 -0.0471377 -0.0245661
-0.612502 -0.0472019 -0.0245975
-0.609377 -0.0472669 -0.0246288
-0.606252 -0.0473324 -0.0246619
-0.603126 -0.0473988 -0.024693
-0.600001 -0.0474658 -0.0247238
-0.596876 -0.0475334 -0.0247541
-0.593751 -0.0476016 -0.0247842
-0.590626 -0.0476704 -0.0248164
-0.5875 -0.0477396 -0.0248459
-0.584375 -0.0478093 -0.0248748
-0.581249 -0.0478794 -0.0249032
-0.578124 -0.0479501 -0.0249311
-0.574999 -0.0480209 -0.0249609
-0.571873 -0.0480925 -0.0249881
-0.568748 -0.0481646 -0.025015
-0.565622 -0.0482373 -0.0250414
-0.562497 -0.0483105 -0.0250673
-0.559371 -0.0483844 -0.0250959
-0.556245 -0.0484586 -0.0251213
-0.55312 -0.0485327 -0.0251461
-0.549994 -0.0486068 -0.0251702
-0.546868 -0.048681 -0.0251937
-0.543742 -0.048755 -0.0252188
-0.540616 -0.0488301 -0.0252418
-0.537489 -0.0489064 -0.0252648
-0.534363 -0.0489838 -0.0252876
-0.531237 -0.0490625 -0.0253104
-0.52811 -0.0491423 -0.0253359
-0.524984 -0.0492238 -0.0253596
-0.521858 -0.0493085 -0.0253842
-0.518731 -0.0493964 -0.0254096
-0.515604 -0.0494874 -0.025436
-0.512478 -0.0495805 -0.0254643
-0.509352 -0.0496753 -0.0254914
-0.506225 -0.0497708 -0.0255183
-0.503099 -0.0498668 -0.025545
-0.499973 -0.0499634 -0.0255714
-0.496847 -0.0500608 -0.0255998
-0.493721 -0.0501571 -0.0256253
-0.490594 -0.0502515 -0.0256494
-0.487468 -0.0503437 -0.025672
-0.484343 -0.0504337 -0.0256931
-0.481217 -0.0505235 -0.0257136
-0.478092 -0.0506129 -0.0257329
-0.474967 -0.050701 -0.0257511
-0.471842 -0.050788 -0.0257682
-0.468717 -0.0508738 -0.0257845
-0.465593 -0.050958 -0.0258018
-0.462469 -0.0510441 -0.0258165
-0.459346 -0.0511302 -0.0258303
-0.456222 -0.051216 -0.0258434
-0.453098 -0.0513015 -0.0258562
-0.449974 -0.0513869 -0.0258692
-0.44685 -0.0514736 -0.0258803
-0.443726 -0.0515604 -0.0258906
-0.440602 -0.0516467 -0.0259005
-0.437478 -0.0517317 -0.0259109
-0.434355 -0.051813 -0.0259237
-0.431232 -0.0518982 -0.025934
-0.428109 -0.0519841 -0.0259434
-0.424986 -0.0520695 -0.0259525
-0.421863 -0.0521541 -0.0259618
-0.41874 -0.0522371 -0.0259721
-0.415616 -0.0523218 -0.0259809
-0.412493 -0.0524067 -0.025989
-0.409369 -0.0524911 -0.0259968
-0.406245 -0.0525741 -0.0260048
-0.403122 -0.0526521 -0.0260145
-0.399999 -0.0527353 -0.0260211
-0.396876 -0.0528197 -0.0260266
-0.393753 -0.0529036 -0.0260317
-0.39063 -0.0529867 -0.0260366
-0.387506 -0.0530672 -0.0260428
-0.384383 -0.0531504 -0.0260469
-0.381259 -0.053234 -0.0260504
-0.378136 -0.0533173 -0.0260536
-0.375012 -0.0533994 -0.0260568
-0.371888 -0.0534754 -0.0260624
-0.368765 -0.0535579 -0.0260652
-0.365642 -0.0536415 -0.026067
-0.362519 -0.0537249 -0.0260686
-0.359395 -0.0538075 -0.02607
-0.356271 -0.0538867 -0.0260725
-0.353147 -0.0539694 -0.0260732
-0.350023 -0.0540524 -0.0260735
-0.346899 -0.0541351 -0.0260735
-0.343775 -0.0542169 -0.0260735
-0.340652 -0.0542916 -0.0260759
-0.337528 -0.0543735 -0.0260759
-0.334405 -0.0544559 -0.0260755
-0.331281 -0.0545383 -0.0260749
-0.328157 -0.0546203 -0.0260743
-0.325033 -0.0546982 -0.0260748
-0.321909 -0.0547804 -0.0260744
-0.318785 -0.0548627 -0.026074
-0.315661 -0.0549449 -0.0260736
-0.312536 -0.0550269 -0.0260732
-0.309412 -0.0551012 -0.026075
-0.306288 -0.0551833 -0.0260759
-0.303164 -0.0552651 -0.0260766
-0.30004 -0.0553467 -0.026077
-0.296915 -0.0554282 -0.0260774
-0.29379 -0.0555056 -0.0260772
-0.290665 -0.0555871 -0.0260759
-0.28754 -0.0556686 -0.0260741
-0.284415 -0.0557496 -0.026072
-0.28129 -0.0558303 -0.0260695
-0.278164 -0.055904 -0.0260682
-0.275038 -0.0559842 -0.0260656
-0.271911 -0.0560636 -0.0260626
-0.268785 -0.0561421 -0.0260592
-0.265659 -0.0562205 -0.0260552
-0.262528 -0.0562953 -0.0260508
-0.259398 -0.0563741 -0.0260438
-0.256267 -0.0564542 -0.0260351
-0.253137 -0.0565345 -0.0260217
-0.250006 -0.0566153 -0.0260036
-0.247107 -0.0566883 -0.0259846
-0.244209 -0.0567644 -0.0259648
-0.241311 -0.0568406 -0.0259446
-0.238413 -0.0569168 -0.0259239
-0.235734 -0.0569872 -0.0259047
-0.235468 -0.0569942 -0.0259029
-0.235202 -0.0570011 -0.0259011
-0.234936 -0.0570081 -0.0258992
-0.23467 -0.0570151 -0.0258974
-0.234403 -0.0570221 -0.0258957
-0.23128 -0.0571039 -0.0258745
-0.228156 -0.0571832 -0.0258553
-0.225032 -0.0572604 -0.0258404
-0.221908 -0.0573364 -0.0258329
-0.218786 -0.057411 -0.025833
-0.215661 -0.0574816 -0.0258388
-0.212537 -0.0575509 -0.025849
-0.209412 -0.0576175 -0.0258635
-0.206288 -0.0576816 -0.0258824
-0.203163 -0.057743 -0.0259036
-0.200038 -0.0578007 -0.0259245
-0.196913 -0.0578562 -0.0259464
-0.193788 -0.0579098 -0.0259704
-0.190663 -0.0579613 -0.0259977
-0.187538 -0.0580107 -0.0260283
-0.184407 -0.0580578 -0.0260615
-0.181276 -0.0581036 -0.0260949
-0.178146 -0.0581488 -0.0261282
-0.175015 -0.0581933 -0.0261613
-0.171884 -0.0582371 -0.0261942
-0.168757 -0.0582818 -0.026227
-0.16563 -0.058327 -0.0262581
-0.162502 -0.0583724 -0.0262868
-0.159375 -0.0584178 -0.0263121
-0.156248 -0.0584633 -0.0263338
[...]
POINT_DATA 996
 FIELD attributes 1
U 3 996 float
30.6297 	0.93686 	-3.90285 30.6325 	0.938204 	-3.90187 30.6352 	0.939549 	-3.90089 30.638 	0.940894 	-3.89991 30.4165 	0.937756 	-3.86083 30.1168 	0.933052 	-3.80848 30.6498 	0.949998 	-3.88675 30.6521 	0.953139 	-3.87976 30.6545 	0.95628 	-3.87278 30.6568 	0.959421 	-3.86581 30.6592 	0.962562 	-3.85885 30.6814 	0.97487 	-3.81128 30.7034 	0.987318 	-3.76401 30.7251 	0.999906 	-3.71702 30.7465 	1.01263 	-3.67031 30.7409 	1.04477 	-3.65848 30.7636 	1.0161 	-3.62933 30.7644 	1.02565 	-3.59353 30.7635 	1.03534 	-3.5573 30.7623 	1.04518 	-3.52123 30.7624 	1.03335 	-3.48549 30.7858 	1.04801 	-3.49249 30.7617 	1.04997 	-3.50199 30.7421 	1.05212 	-3.51055 30.7572 	1.05578 	-3.51231 30.7321 	1.0739 	-3.51658 30.769 	1.03894 	-3.5374 30.7965 	1.03809 	-3.52637 30.8239 	1.03725 	-3.51542 30.0634 	1.00519 	-3.39881 26.9583 	0.945396 	-2.92483 28.778 	0.948572 	-3.17571 29.731 	0.977459 	-3.25782 30.6764 	1.0061 	-3.33912 31.0028 	1.01668 	-3.34012 31.0272 	1.01842 	-3.30321 31.0314 	1.0182 	-3.29599 31.0356 	1.01798 	-3.28877 31.0398 	1.01776 	-3.28157 31.044 	1.01754 	-3.27437 31.0464 	1.01249 	-3.27317 31.0615 	0.99932 	-3.24538 31.0689 	0.981195 	-3.22349 31.0761 	0.963013 	-3.20176 31.0833 	0.944775 	-3.18018 31.0998 	0.937222 	-3.15639 31.1045 	0.931728 	-3.15438 31.1105 	0.931091 	-3.14978 31.1164 	0.930455 	-3.14519 31.1224 	0.92982 	-3.14061 31.0454 	0.927238 	-3.12613 29.2731 	0.881878 	-2.89533 27.4908 	0.836395 	-2.66353 25.697 	0.790776 	-2.4306 23.8902 	0.745004 	-2.19638 22.8973 	0.675277 	-2.03904 23.3285 	0.720615 	-2.20214 23.157 	0.689179 	-2.17271 23.985 	0.712875 	-2.24944 24.8125 	0.736546 	-2.32612 23.5672 	0.637328 	-2.08845 26.5173 	0.769745 	-2.43823 27.3635 	0.778751 	-2.48467 28.1957 	0.787248 	-2.52977 29.0146 	0.795266 	-2.5736 26.8102 	0.609999 	-2.31798 29.6749 	0.777516 	-2.59142 30.3577 	0.759022 	-2.62341 31.0222 	0.739937 	-2.65379 31.326 	0.706634 	-2.64069 28.5322 	0.550321 	-2.24974 31.3365 	0.621136 	-2.57378 31.3423 	0.580089 	-2.53989 31.348 	0.539154 	-2.50653 31.3534 	0.498329 	-2.47368 31.3581 	0.461809 	-2.44467 31.3584 	0.452136 	-2.43965 31.3588 	0.442442 	-2.43465 31.3591 	0.432727 	-2.42967 31.3597 	0.423401 	-2.43 31.3553 	0.386364 	-2.42715 30.1937 	0.416315 	-2.2948 27.6188 	0.396212 	-2.02946 25.0229 	0.37635 	-1.76254 22.4015 	0.356783 	-1.4937 21.7087 	0.216842 	-1.43641 24.0244 	0.227751 	-1.80971 23.1123 	0.198588 	-1.74676 23.7416 	0.160502 	-1.7779 24.5018 	0.122322 	-1.82058 20.3821 	0.0421799 	-1.30592 26.1313 	0.0115586 	-1.88705 26.8609 	-0.016691 	-1.88817 27.5657 	-0.0449925 	-1.88742 28.0534 	-0.0608805 	-1.89407 23.9271 	-0.129248 	-1.43986 28.5187 	-0.142941 	-1.84051 28.7968 	-0.161834 	-1.81359 29.1749 	-0.188331 	-1.77571 29.5245 	-0.214594 	-1.73625 24.8998 	-0.187604 	-1.26823 29.8932 	-0.315077 	-1.65259 30.1379 	-0.340726 	-1.60275 30.3545 	-0.366109 	-1.55135 30.5433 	-0.391232 	-1.49842 27.2521 	-0.346977 	-1.15648 30.7579 	-0.439396 	-1.41107 30.9308 	-0.461808 	-1.35694 31.077 	-0.48378 	-1.30182 31.197 	-0.505318 	-1.24573 27.7379 	-0.428789 	-0.937461 31.3581 	-0.560207 	-1.14658 31.4793 	-0.571839 	-1.10211 31.5811 	-0.583159 	-1.05699 31.6638 	-0.594167 	-1.01119 29.2698 	-0.518765 	-0.788792 31.6497 	-0.604163 	-0.914776 31.6324 	-0.599802 	-0.868431 31.6148 	-0.595754 	-0.822714 31.5969 	-0.592015 	-0.777615 29.8931 	-0.526988 	-0.636486 31.5538 	-0.578592 	-0.690251 31.5322 	-0.571497 	-0.652017 31.5102 	-0.564633 	-0.614264 31.488 	-0.557999 	-0.576987 30.8693 	-0.530848 	-0.504526 31.4458 	-0.547797 	-0.516712 31.4273 	-0.545227 	-0.496485 31.4087 	-0.542755 	-0.47646 31.3899 	-0.540379 	-0.456635 31.3656 	-0.537455 	-0.43148 31.363 	-0.537269 	-0.428967 31.3605 	-0.537084 	-0.426458 31.3579 	-0.5369 	-0.423952 31.3554 	-0.536717 	-0.42145 31.3528 	-0.53684 	-0.421053 31.3324 	-0.537306 	-0.40243 31.3116 	-0.538148 	-0.385969 31.2905 	-0.539457 	-0.372258 31.2689 	-0.541442 	-0.362617 31.246 	-0.544581 	-0.35892 31.2425 	-0.545215 	-0.353139 31.2362 	-0.547008 	-0.352047 31.2299 	-0.548803 	-0.350959 31.2237 	-0.550599 	-0.349874 31.2175 	-0.552354 	-0.348817 31.2063 	-0.55564 	-0.343397 31.1951 	-0.558933 	-0.337975 31.1838 	-0.562234 	-0.332549 31.1726 	-0.565542 	-0.327121 31.1578 	-0.567565 	-0.327706 31.1506 	-0.577539 	-0.320109 31.1392 	-0.5865 	-0.318063 31.1278 	-0.595468 	-0.315989 31.1164 	-0.604443 	-0.31389 31.0982 	-0.612273 	-0.327644 31.1019 	-0.62155 	-0.313793 31.0971 	-0.630078 	-0.313087 31.0923 	-0.638611 	-0.312357 31.0876 	-0.647149 	-0.311604 31.066 	-0.651003 	-0.328884 31.0821 	-0.660342 	-0.309299 31.0793 	-0.666271 	-0.305687 31.0764 	-0.672208 	-0.302064 31.0735 	-0.678155 	-0.29843 31.0522 	-0.683218 	-0.320853 31.0683 	-0.687821 	-0.292265 31.0627 	-0.692584 	-0.287244 31.057 	-0.697359 	-0.282218 31.0512 	-0.702144 	-0.277186 31.0132 	-0.702909 	-0.295863 31.0421 	-0.710882 	-0.270791 31.0349 	-0.716068 	-0.266412 31.0276 	-0.721264 	-0.262026 31.0204 	-0.726468 	-0.257634 30.986 	-0.7331 	-0.283463 31.009 	-0.735507 	-0.252088 30.998 	-0.735197 	-0.245569 30.9868 	-0.734897 	-0.239056 30.9756 	-0.734607 	-0.232549 30.9226 	-0.732676 	-0.248337 30.9601 	-0.74355 	-0.228333 30.9471 	-0.754959 	-0.227263 30.9342 	-0.766369 	-0.226172 30.9213 	-0.777782 	-0.225061 30.8747 	-0.788285 	-0.251392 30.9117 	-0.805728 	-0.234473 30.9108 	-0.837302 	-0.243188 30.9101 	-0.868849 	-0.251838 30.9095 	-0.90037 	-0.260424 30.8543 	-0.918323 	-0.279209 30.9163 	-0.93811 	-0.268533 30.9259 	-0.9441 	-0.266133 30.9355 	-0.950096 	-0.263727 30.9451 	-0.956097 	-0.261315 30.9111 	-0.962817 	-0.280722 30.9634 	-0.954537 	-0.25292 30.9665 	-0.934308 	-0.238417 30.9691 	-0.913344 	-0.223784 30.9715 	-0.892405 	-0.209194 30.9041 	-0.888084 	-0.203071 30.9816 	-0.886026 	-0.191152 30.9717 	-0.873604 	-0.180465 30.9615 	-0.861188 	-0.169802 30.949 	-0.850271 	-0.161443 30.8811 	-0.831885 	-0.170815 30.9475 	-0.852918 	-0.145191 30.949 	-0.853498 	-0.136476 30.9374 	-0.849807 	-0.130281 30.9057 	-0.846083 	-0.126178 30.8097 	-0.842261 	-0.128717 30.897 	-0.857422 	-0.109439 30.9142 	-0.858542 	-0.101664 30.9023 	-0.853844 	-0.0986611 30.8702 	-0.840238 	-0.102771 30.786 	-0.801349 	-0.126218 30.8688 	-0.841871 	-0.101341 30.8856 	-0.850019 	-0.0927441 30.8765 	-0.844271 	-0.0906244 30.8417 	-0.835067 	-0.0915703 30.7357 	-0.816301 	-0.101 30.8421 	-0.836635 	-0.086788 30.862 	-0.838501 	-0.0805721 30.8521 	-0.833981 	-0.0771254 30.8215 	-0.819153 	-0.0783786 30.7206 	-0.767055 	-0.0962489 30.8187 	-0.821661 	-0.0649439 30.8343 	-0.832487 	-0.0540078 30.822 	-0.828416 	-0.0498999 30.7857 	-0.818942 	-0.0491848 30.663 	-0.789875 	-0.0607789 30.778 	-0.820371 	-0.0405257 30.7906 	-0.823902 	-0.0341564 30.7774 	-0.820803 	-0.0310935 30.7473 	-0.808152 	-0.0316165 30.6301 	-0.744986 	-0.0555211 30.7391 	-0.812496 	-0.0270245 30.748 	-0.82299 	-0.0182495 30.7346 	-0.820518 	-0.0148734 30.7021 	-0.81229 	-0.0140642 30.5662 	-0.774288 	-0.0246899 30.6912 	-0.812866 	-0.0071971 30.6946 	-0.815259 	-0.00269009 30.6805 	-0.812639 	1.835e-05 30.6545 	-0.802595 	-3.30919e-06 30.523 	-0.729364 	-0.0232447 30.6421 	-0.803331 	-7.29831e-05 30.6424 	-0.809263 	0.00403236 30.6287 	-0.807675 	0.0056437 30.6034 	-0.802754 	0.00557845 30.4563 	-0.760116 	-0.00475675 30.5909 	-0.804809 	0.0046178 30.5853 	-0.805481 	0.00387759 30.5751 	-0.804505 	0.00388762 30.5625 	-0.801882 	0.00368274 30.4242 	-0.723976 	-0.0172511 30.5584 	-0.802734 	-0.0089367 30.5496 	-0.800101 	-0.00675473 30.5406 	-0.797406 	-0.00457983 30.5298 	-0.796942 	-0.0033276 30.3815 	-0.75183 	0.00196265 30.521 	-0.795939 	0.0128783 30.5089 	-0.795801 	0.0168598 30.5016 	-0.79122 	0.0206146 30.4942 	-0.786618 	0.0243605 30.3587 	-0.716501 	0.0124687 30.4792 	-0.781914 	0.0254873 30.4745 	-0.773633 	0.0294097 30.4697 	-0.765325 	0.0333192 30.455 	-0.763017 	0.0387332 30.3386 	-0.725109 	0.0423788 30.419 	-0.766296 	0.0684017 30.3911 	-0.77706 	0.0844908 30.3711 	-0.779745 	0.129879 30.3496 	-0.782218 	0.175165 30.2771 	-0.763414 	0.198934 30.2887 	-0.795546 	0.206438 30.2574 	-0.795238 	0.211286 30.226 	-0.794895 	0.216145 30.1965 	-0.793186 	0.216115 30.1726 	-0.78928 	0.207518 30.1695 	-0.790187 	0.206353 30.1665 	-0.791094 	0.205189 30.1635 	-0.791999 	0.204025 30.1605 	-0.792904 	0.202861 30.0332 	-0.786317 	0.203378 30.1413 	-0.76509 	0.185466 30.1177 	-0.744612 	0.143887 30.0864 	-0.731894 	0.0715583 30.0578 	-0.718652 	-0.000420052 28.891 	-0.652659 	-0.0541777 30.0525 	-0.665969 	-0.0979992 30.0627 	-0.641421 	-0.139612 30.0743 	-0.616745 	-0.181253 30.0842 	-0.591183 	-0.204959 28.553 	-0.526918 	-0.190633 30.1016 	-0.535203 	-0.211253 30.1159 	-0.516009 	-0.230492 30.1379 	-0.496606 	-0.263216 30.161 	-0.477186 	-0.295881 28.6647 	-0.431132 	-0.303584 30.2046 	-0.441917 	-0.323018 30.2313 	-0.436024 	-0.321472 30.2578 	-0.430123 	-0.319923 30.2769 	-0.42404 	-0.318078 28.265 	-0.403788 	-0.295758 30.2948 	-0.437879 	-0.301612 30.3081 	-0.439938 	-0.278494 30.3267 	-0.440583 	-0.244667 30.3441 	-0.441256 	-0.210809 28.3181 	-0.404427 	-0.169127 30.349 	-0.452024 	-0.170941 30.3489 	-0.450534 	-0.155433 30.3483 	-0.449085 	-0.139935 30.3454 	-0.448038 	-0.129257 27.9502 	-0.398457 	-0.104916 30.3328 	-0.442385 	-0.122108 30.33 	-0.438069 	-0.116047 30.3307 	-0.434231 	-0.107922 30.3311 	-0.430412 	-0.099804 28.3515 	-0.38061 	-0.082296 30.3348 	-0.426202 	-0.0838954 30.355 	-0.424371 	-0.0700842 30.3747 	-0.422579 	-0.0562964 30.3864 	-0.417358 	-0.0468633 29.0338 	-0.382988 	-0.0296222 30.3773 	-0.405937 	-0.0409819 30.3619 	-0.397091 	-0.0480526 30.3467 	-0.388225 	-0.0551303 30.3408 	-0.382995 	-0.0593122 30.3376 	-0.378929 	-0.0625632 30.3362 	-0.385933 	-0.0622849 30.3348 	-0.392941 	-0.0620026 30.3334 	-0.399952 	-0.0617162 30.332 	-0.406966 	-0.0614258 30.2354 	-0.381809 	-0.0800349 30.2044 	-0.445053 	-0.140503 25.2091 	-0.384668 	-0.124452 19.5216 	-0.291441 	-0.0824518 20.5832 	-0.303856 	-0.0832119 19.3561 	-0.265003 	-0.0423385 21.9558 	-0.320033 	-0.0653733 22.1685 	-0.321927 	-0.0528663 22.3758 	-0.323738 	-0.0403343 22.6707 	-0.328441 	-0.0384577 20.1587 	-0.278347 	0.0117218 23.0892 	-0.337104 	-0.0316445 23.063 	-0.33516 	-0.0273968 23.1702 	-0.332375 	-0.0154819 23.2729 	-0.32953 	-0.00357601 20.8558 	-0.267715 	0.0313916 23.2615 	-0.304833 	0.0173407 23.2963 	-0.300027 	0.0206117 23.331 	-0.295219 	0.0238646 23.1127 	-0.290194 	0.0271263 20.825 	-0.256993 	0.0567491 22.5785 	-0.281342 	0.0321011 22.3939 	-0.278026 	0.0336969 22.4375 	-0.276011 	0.0334225 22.482 	-0.274009 	0.0331374 21.1477 	-0.24527 	0.0439678 22.4616 	-0.267413 	0.0332813 22.4461 	-0.262511 	0.032829 22.4321 	-0.25763 	0.0323581 22.2919 	-0.253817 	0.033105 21.0389 	-0.236067 	0.0476735 21.9037 	-0.246608 	0.0365418 21.7724 	-0.242438 	0.0362407 21.7097 	-0.235075 	0.0328618 21.6508 	-0.227756 	0.0294523 21.1515 	-0.212608 	0.0295051 21.4811 	-0.213179 	0.0200547 21.3832 	-0.206305 	0.0134184 21.2906 	-0.19949 	0.00675525 21.1885 	-0.194871 	0.00319587 21.0376 	-0.193178 	0.00462073 21.038 	-0.19318 	0.00462701 21.0384 	-0.193182 	0.00463328 21.0388 	-0.193184 	0.00463956 21.0391 	-0.193185 	0.00464584 21.0387 	-0.193163 	0.00463478 21.0675 	-0.193028 	0.00508277 21.0992 	-0.191043 	0.00248854 21.1378 	-0.18617 	-0.00491813 21.1777 	-0.181318 	-0.0123408 20.8232 	-0.172534 	-0.0209443 21.2557 	-0.171635 	-0.0257336 21.2912 	-0.166822 	-0.0313409 21.3273 	-0.162023 	-0.0369601 21.3625 	-0.160432 	-0.0385493 21.1916 	-0.15512 	-0.0407844 21.4468 	-0.158695 	-0.0403111 21.4904 	-0.157277 	-0.0414655 21.529 	-0.1529 	-0.0456181 21.5679 	-0.148532 	-0.0497788 20.4618 	-0.13606 	-0.0542583 21.6626 	-0.141176 	-0.0577432 21.7089 	-0.139117 	-0.0608 21.7557 	-0.137067 	-0.0638615 21.8177 	-0.136573 	-0.0646142 21.483 	-0.129708 	-0.0675905 21.9481 	-0.135513 	-0.0661106 22.0039 	-0.135557 	-0.0665761 22.0497 	-0.135767 	-0.0684758 22.096 	-0.135982 	-0.0703784 20.3227 	-0.126184 	-0.0710487 22.2065 	-0.136218 	-0.0703525 22.2525 	-0.136338 	-0.0704986 22.2986 	-0.136459 	-0.0706447 22.3451 	-0.136421 	-0.0705594 21.8222 	-0.127354 	-0.0761946 22.4664 	-0.134955 	-0.0702579 22.5241 	-0.134466 	-0.0698999 22.578 	-0.132399 	-0.0686625 22.6309 	-0.130329 	-0.0674236 20.2501 	-0.116946 	-0.0685487 22.773 	-0.123023 	-0.0666025 22.8392 	-0.119513 	-0.0646603 22.9039 	-0.115999 	-0.0627153 22.9879 	-0.115324 	-0.0623387 22.3384 	-0.10646 	-0.0678857 23.1674 	-0.109736 	-0.0625186 23.2533 	-0.108945 	-0.0622134 23.3163 	-0.105526 	-0.060667 23.3779 	-0.102105 	-0.0591188 20.416 	-0.0947435 	-0.0591512 23.528 	-0.094813 	-0.0575134 23.5855 	-0.0914959 	-0.0566395 23.6419 	-0.0881786 	-0.0557644 23.7192 	-0.0873577 	-0.0555996 22.8959 	-0.0821386 	-0.0618903 23.8913 	-0.0811343 	-0.0571385 23.9815 	-0.0798702 	-0.0574812 24.0408 	-0.0749971 	-0.0586346 24.0992 	-0.0701312 	-0.0597889 20.5044 	-0.0699563 	-0.0620446 24.2462 	-0.0570842 	-0.0700228 24.3009 	-0.0494448 	-0.0720555 24.3544 	-0.0418171 	-0.0740862 24.4184 	-0.0399493 	-0.0746467 23.4198 	-0.0379836 	-0.0799092 24.5925 	-0.0235092 	-0.084688 24.7007 	-0.0207348 	-0.0853891 24.7713 	-0.00977217 	-0.0869145 24.8398 	0.00116933 	-0.0884307 20.7162 	-0.0151811 	-0.077551 25.0218 	0.0289434 	-0.101052 25.091 	0.0445715 	-0.101978 25.1571 	0.0601707 	-0.102883 25.2629 	0.0644484 	-0.103501 24.176 	0.0568461 	-0.0997712 25.4503 	0.098825 	-0.122361 25.5718 	0.106729 	-0.122685 25.6213 	0.131607 	-0.122079 25.6655 	0.156406 	-0.121419 21.3545 	0.108239 	-0.0889695 25.7666 	0.225759 	-0.154604 25.7608 	0.259418 	-0.153872 25.7479 	0.292955 	-0.153015 25.8548 	0.305882 	-0.15325 24.7366 	0.270251 	-0.122963 25.732 	0.35706 	-0.191314 25.7148 	0.384121 	-0.164755 25.6512 	0.439949 	-0.110788 25.5653 	0.495327 	-0.056723 21.7551 	0.414573 	0.0489296 24.9328 	0.679532 	-0.0268696 24.6375 	0.727581 	0.0254903 24.3157 	0.774955 	0.0780749 27.6361 	1.05069 	0.198866 31.0023 	1.33044 	0.323551 31.0013 	1.33087 	0.32312 31.0008 	1.33042 	0.323431 31.0003 	1.32996 	0.323743 30.9998 	1.32951 	0.324054 30.9993 	1.32906 	0.324365 30.9884 	1.31344 	0.328607 30.9774 	1.29785 	0.332775 30.9733 	1.31139 	0.33881 30.972 	1.33804 	0.345767 30.9681 	1.34804 	0.3491 30.9967 	1.39657 	0.392898 31.0104 	1.42439 	0.433411 31.0327 	1.4454 	0.471492 31.0708 	1.45399 	0.505182 28.9625 	1.3142 	0.452068 31.1512 	1.53224 	0.585182 31.2057 	1.58458 	0.665473 31.2205 	1.63005 	0.737572 31.216 	1.67258 	0.805811 31.2252 	1.60733 	0.951328 31.2577 	1.77232 	1.1206 31.2245 	1.81241 	1.18575 31.2085 	1.87113 	1.2626 31.191 	1.93091 	1.34183 30.977 	1.81843 	1.36922 31.0153 	1.98361 	1.37918 30.9813 	2.02911 	1.41318 30.9308 	2.04842 	1.45256 30.8903 	2.00144 	1.47289 30.8711 	1.82728 	1.46237 30.8079 	2.00048 	1.56 30.7513 	2.06527 	1.63319 30.6956 	2.05836 	1.68693 30.6231 	2.02991 	1.74076 30.4759 	1.90025 	1.79495 30.5057 	2.03875 	1.78938 30.435 	2.02765 	1.79989 30.3632 	2.01449 	1.81081 30.3323 	2.01659 	1.83102 30.2907 	1.91497 	1.82058 30.2061 	2.006 	1.82935 30.1599 	2.00402 	1.81689 30.0963 	1.99443 	1.81148 30.0237 	1.98091 	1.80966 29.9473 	1.95488 	1.81199 29.9366 	1.96492 	1.80499 29.9209 	1.9614 	1.80353 29.9053 	1.95788 	1.80206 29.8896 	1.95436 	1.80059 29.8737 	1.95077 	1.79909 29.8058 	1.96711 	1.78877 29.7436 	1.98615 	1.77614 29.6891 	2.00882 	1.7604 29.6348 	2.03124 	1.74484 29.5748 	1.9873 	1.76716 29.4979 	2.05843 	1.70062 29.4188 	2.07783 	1.65123 29.3407 	2.09631 	1.60192 29.251 	2.10784 	1.56328 29.2356 	1.9436 	1.48331 29.0611 	2.10042 	1.42164 28.9818 	2.11003 	1.33707 28.9146 	2.12748 	1.24516 28.8524 	2.12163 	1.15689 28.8075 	1.99712 	1.08781 28.721 	2.09344 	0.937578 28.6811 	2.11296 	0.824568 28.6531 	2.11519 	0.719302 28.6303 	2.11264 	0.60462 28.6854 	1.97283 	0.470625 28.5992 	2.09164 	0.355738 28.6146 	2.09589 	0.23362 28.6314 	2.1012 	0.118398 28.6509 	2.1054 	0.0031672 28.6948 	2.06248 	-0.0968017 28.7178 	2.1069 	-0.23615 28.7685 	2.11213 	-0.336436 28.8215 	2.1164 	-0.436743 28.8797 	2.11757 	-0.543466 28.9476 	2.1073 	-0.655837 28.958 	2.11297 	-0.672264 28.9751 	2.11036 	-0.688198 28.9921 	2.10773 	-0.704138 29.0093 	2.10507 	-0.720084 29.0265 	2.10239 	-0.736076 29.1168 	2.09151 	-0.818826 29.1969 	2.08932 	-0.884658 29.2781 	2.08669 	-0.950434 29.3605 	2.08364 	-1.01616 29.4276 	2.0698 	-1.10707 29.5798 	2.08001 	-1.13813 29.6942 	2.07084 	-1.17215 29.8091 	2.06144 	-1.20624 29.9246 	2.05181 	-1.24038 29.991 	2.01263 	-1.2507 30.1393 	2.01884 	-1.22506 30.2414 	2.00078 	-1.21827 30.3327 	1.97704 	-1.21895 30.424 	1.95338 	-1.2198 30.4396 	1.88806 	-1.27344 30.605 	1.8985 	-1.20468 30.6819 	1.86289 	-1.19762 30.7587 	1.82746 	-1.19076 30.8393 	1.79353 	-1.18419 30.9149 	1.74909 	-1.18585 30.9901 	1.72703 	-1.16024 31.0473 	1.69472 	-1.14527 31.0929 	1.65753 	-1.12707 31.1382 	1.62051 	-1.10898 31.1962 	1.57294 	-1.08573 31.208 	1.56477 	-1.08013 31.2197 	1.5566 	-1.07454 31.2314 	1.54844 	-1.06897 31.243 	1.54029 	-1.06341 31.2523 	1.53117 	-1.05909 31.3196 	1.48327 	-1.01838 31.3825 	1.43373 	-0.979481 31.4444 	1.38435 	-0.941038 31.5135 	1.34476 	-0.909637 31.5523 	1.29717 	-0.899245 31.6398 	1.27026 	-0.85262 31.6911 	1.22471 	-0.823667 31.714 	1.16254 	-0.789415 31.7359 	1.10043 	-0.755621 31.7366 	1.02588 	-0.732163 31.8156 	0.99657 	-0.658446 31.841 	0.929209 	-0.605819 31.8685 	0.865264 	-0.556197 31.9108 	0.818889 	-0.522571 31.7688 	0.680636 	-0.575101 31.9777 	0.723554 	-0.423177 32.0568 	0.703006 	-0.354749 32.0771 	0.652316 	-0.308349 32.0648 	0.581248 	-0.28771 32.0201 	0.488151 	-0.307484 32.1163 	0.488965 	-0.194569 32.1754 	0.465669 	-0.10916 32.1912 	0.413179 	-0.0710484 32.0621 	0.295466 	-0.127636 31.8649 	0.145594 	-0.222603 32.09 	0.169745 	-0.0635348 32.2795 	0.182157 	0.0732474 32.2845 	0.12457 	0.102515 32.2324 	0.0425037 	0.0781759 32.1727 	-0.0423356 	0.042896 32.2607 	-0.0615183 	0.144323 32.3314 	-0.0879318 	0.233013 32.3322 	-0.142122 	0.256552 32.1466 	-0.253696 	0.179168 31.9142 	-0.381409 	0.077328 32.1821 	-0.355237 	0.246935 32.3678 	-0.352805 	0.371389 32.3762 	-0.418624 	0.403811 32.3303 	-0.501167 	0.404986 32.2449 	-0.586556 	0.379147 32.3408 	-0.61506 	0.483519 32.3837 	-0.6766 	0.562285 32.3819 	-0.75376 	0.609168 32.3165 	-0.838432 	0.612849 32.0838 	-0.993937 	0.550305 32.3197 	-0.945363 	0.715634 32.3246 	-0.993439 	0.762753 32.3126 	-1.05626 	0.821591 32.3004 	-1.12112 	0.886492 32.194 	-1.19906 	0.895457 32.2521 	-1.22314 	0.997496 32.2329 	-1.26887 	1.07032 32.2115 	-1.31528 	1.14252 32.1767 	-1.37059 	1.18878 32.0179 	-1.47596 	1.18649 32.1009 	-1.47076 	1.29757 32.0696 	-1.51842 	1.35075 32.063 	-1.55324 	1.43839 32.0541 	-1.5888 	1.5252 32.0308 	-1.62772 	1.60251 32.0353 	-1.62976 	1.6134 32.0338 	-1.63279 	1.62545 32.0322 	-1.63583 	1.6375 32.0306 	-1.63888 	1.64955 32.029 	-1.64181 	1.6611 32.0402 	-1.66622 	1.74506 32.0504 	-1.69116 	1.8285 32.0597 	-1.71664 	1.91144 32.0504 	-1.75387 	1.9698 31.9288 	-1.73778 	2.04761 32.0692 	-1.83485 	2.19111 32.0663 	-1.85633 	2.28191 31.9938 	-1.86804 	2.36277 31.9054 	-1.87936 	2.44066 31.5348 	-1.87337 	2.46288 31.7317 	-1.9066 	2.5673 31.6451 	-1.91224 	2.63342 31.5645 	-1.91827 	2.6992 31.5108 	-1.92475 	2.76438 31.3411 	-1.90028 	2.79811 31.3738 	-1.93373 	2.90286 31.3419 	-1.93071 	2.98536 31.3054 	-1.92824 	3.06682 31.2306 	-1.92802 	3.13734 31.0625 	-1.92852 	3.19038 31.0708 	-1.92795 	3.27703 31.0176 	-1.92211 	3.36122 30.9893 	-1.91528 	3.45978 30.9589 	-1.90893 	3.55818 30.9201 	-1.90211 	3.65411 30.9187 	-1.90218 	3.66531 30.9142 	-1.90066 	3.67524 30.9097 	-1.89915 	3.68518 30.9051 	-1.89765 	3.6951 30.9005 	-1.89615 	3.70507 30.8892 	-1.89089 	3.74209 30.8776 	-1.8857 	3.77907 30.8656 	-1.8806 	3.81602 30.8524 	-1.87487 	3.85265 30.8307 	-1.86243 	3.88278 30.7997 	-1.86074 	3.9263 30.7651 	-1.85333 	3.9669 30.7288 	-1.84382 	4.00634 30.6925 	-1.83437 	4.04573 30.6584 	-1.7992 	4.08245 30.6133 	-1.8023 	4.16754 30.535 	-1.7798 	4.24341 30.4546 	-1.75754 	4.319 30.3722 	-1.73553 	4.39432 30.3044 	-1.