# vtk DataFile Version 2.0
sampleSurface
ASCII
DATASET POLYDATA
POINTS 18239 float
7.37118e-05 -8.67362e-19 0.00245418
9.63548e-05 -4.33681e-19 -0.00548565
-0.00769806 -3.61401e-20 -0.00147063
0.00794388 0 -0.00158692
-0.00773518 7.22801e-20 0.0058872
0.00793362 0 0.00567492
-0.00364585 -4.33681e-19 0.00949261
0.00357675 0 0.00953232
-2.46316e-06 -4.33681e-19 0.0116078
-0.00772273 0 -0.00933631
-0.00197666 0 0.0120428
0.00786491 0 -0.00935682
0.00200081 0 0.0120951
-5.36449e-06 0 0.0124328
-0.00234888 4.33681e-19 0.0124008
0.00236663 4.33681e-19 0.0124564
-1.74039e-05 8.67362e-19 -0.013188
0.0120963 2.1684e-19 0.009396
-0.0120741 0 0.00966407
-0.015558 0 0.00259184
0.0157256 -4.33681e-19 0.00230339
-0.0154718 4.33681e-19 -0.00541726
0.0157243 -4.33681e-19 -0.0055977
0.0132846 -4.33681e-19 0.0123014
0.013665 -8.67362e-19 0.0119268
0.00791005 -1.4456e-19 -0.0163879
-0.0133933 0 0.0125481
-0.00778438 1.4456e-19 -0.0166214
-0.0137437 0 0.0122097
0.015671 4.33681e-19 0.0114686
-0.0156778 0 0.0117479
0.015668 0 0.0123255
-0.015681 0 0.0125176
-0.0155539 0 -0.0131551
0.0156306 0 -0.0131143
0.0191295 -2.1684e-19 0.00944697
0.0176898 0 0.0119661
-0.017569 -4.33681e-19 0.0121544
-0.0192721 4.33681e-19 0.00964984
-0.0179195 0 0.0124878
0.0180595 4.33681e-19 0.01234
7.17968e-05 1.0842e-19 -0.021994
-0.0232966 1.4456e-19 -0.00140161
0.0236024 2.89121e-19 -0.00173122
0.0236529 2.1684e-19 0.00470477
-0.0233759 -7.22801e-20 0.00605485
0.0235037 0 0.00679588
-0.0231601 0 -0.00933107
0.0235431 -4.69821e-19 -0.0093987
0.0156881 7.22801e-20 -0.0218273
0.00809462 4.33681e-19 -0.0256905
-0.00736353 8.67362e-19 -0.0261413
-0.0155647 3.61401e-20 -0.0225121
0.0235348 4.33681e-19 -0.016291
-0.0232773 0 -0.0168198
0.027923 0 0.00934127
-0.0278514 -4.33681e-19 0.00987277
7.58323e-05 -3.61401e-20 -0.0299653
-0.0311636 0 0.00273536
-0.03089 -8.67362e-19 -0.00549911
0.0289697 -4.33681e-19 0.0121552
0.0313541 4.33681e-19 0.00212258
0.029347 4.33681e-19 0.0117762
-0.0292135 0 0.0125974
0.0313532 -4.33681e-19 -0.00575138
-0.0295381 -4.33681e-19 0.0122929
0.0313174 0 0.0113089
-0.0307831 0 -0.0131362
-0.0313122 0 0.0118791
0.0313145 -4.33681e-19 0.0121694
0.0156907 0 -0.0297295
-0.0313167 0 0.0125703
0.0313247 0 -0.0131599
-0.0155614 3.61401e-20 -0.03046
0.00787564 0 -0.0337773
0.0235255 0 -0.0255749
-0.00772481 4.33681e-19 -0.034118
-0.0330406 0 0.0122396
0.0332879 4.33681e-19 0.0117972
-0.0333606 2.1684e-19 0.0125382
-0.0233948 -8.67362e-19 -0.0268943
0.0336536 0 0.012171
0.0346237 2.1684e-19 0.00936863
-0.0346626 -2.1684e-19 0.00989479
5.79873e-05 1.807e-20 -0.0378891
0.0312965 7.22801e-20 -0.0218455
-0.0311433 0 -0.0229178
-0.0390193 0 -0.00156665
0.0391935 -1.807e-19 -0.00186273
-0.0381468 1.4456e-19 -0.00944956
-0.0389377 0 0.00616431
0.0391748 -2.1684e-19 0.00444132
0.039142 2.1684e-19 0.00665929
0.0391963 -7.22801e-20 -0.00951071
0.015678 -3.61401e-20 -0.0376699
0.0234882 -4.33681e-19 -0.0336314
-0.0155725 -3.61401e-20 -0.038258
-0.0379996 0 -0.0170081
-0.0233795 4.33681e-19 -0.0345719
0.0391718 4.33681e-19 -0.0163177
0.0078662 -4.33681e-19 -0.0417652
-0.00774979 -8.67362e-19 -0.0420222
0.0313021 3.61401e-20 -0.0296718
-0.0311972 3.61401e-20 -0.0309365
0.0437374 0 0.00929172
-0.0436203 -2.1684e-19 0.0100544
4.40842e-05 0 -0.0458684
-0.0441645 8.67362e-19 -0.0131697
0.0446788 0 0.0119989
0.0450439 0 0.0116251
-0.0449381 2.1684e-19 0.0125565
-0.0466368 8.67362e-19 0.00286316
0.0391134 0 -0.0256174
-0.0452347 -2.1684e-19 0.012281
0.0469785 -4.33681e-19 0.00204148
-0.0468662 0 -0.00621121
0.0469785 -4.33681e-19 -0.00585833
-0.0390215 0 -0.0273976
0.0234815 4.33681e-19 -0.0416254
0.0469536 0 0.0111577
0.0156669 -1.807e-20 -0.04569
-0.0468371 0 0.0119074
-0.0233838 -4.33681e-19 -0.0423606
0.0469511 4.33681e-19 0.0120003
-0.0468437 0 0.0125273
-0.0155835 3.61401e-20 -0.0461389
0.0469479 -4.33681e-19 -0.0133452
0.0312953 3.61401e-20 -0.0375856
-0.0312058 1.807e-20 -0.0386643
-0.0484241 0 0.012225
0.0488558 0 0.0116306
-0.0487324 -2.1684e-19 0.012497
0.00785517 -4.33681e-19 -0.0497792
-0.00776557 8.67362e-19 -0.0499733
0.0492097 -4.33681e-19 0.011997
-0.0498686 4.33681e-19 0.0100733
0.0500966 6.50521e-19 0.00930639
0.050899 0 0.00431535
0.0391025 0 -0.0336186
0.0469135 0 -0.0220115
-0.0467018 -3.61401e-20 -0.0234239
-0.0390131 0 -0.0350342
3.38505e-05 3.61401e-20 -0.0538585
-0.0512022 0 -0.0175777
-0.054201 3.61401e-20 -0.00149426
-0.0534592 -2.1684e-19 -0.00987976
-0.0542603 4.33681e-19 0.0061529
0.0548491 -1.4456e-19 -0.00198023
0.0234741 4.33681e-19 -0.0496601
0.0547741 0 0.00653115
0.0312877 0 -0.0456027
-0.0233932 0 -0.0502255
0.0469174 -3.61401e-20 -0.029745
0.0548247 -1.4456e-19 -0.0096559
0.0156579 -3.61401e-20 -0.053718
-0.0312137 -1.807e-20 -0.0464534
-0.0155926 -1.807e-20 -0.0540591
-0.0468315 -5.42101e-20 -0.0314451
0.0390979 -4.33681e-19 -0.041585
0.0547886 1.4456e-19 -0.0164164
-0.0390158 0 -0.0427316
0.00784598 -4.33681e-19 -0.0577852
-0.00777652 0 -0.0579326
0.0588686 -4.33681e-19 0.00411351
-0.0589488 2.1684e-19 0.00985395
0.0469137 -1.807e-20 -0.0376053
0.0595582 2.1684e-19 0.00924969
0.0547318 -4.33681e-19 -0.0257431
-0.0468408 1.807e-20 -0.039098
-0.0546429 -4.33681e-19 -0.0279938
-0.0602611 2.1684e-19 0.0124037
0.0604206 2.1684e-19 0.0118249
-0.0616439 0 0.0027911
-0.0605866 0 0.0121041
2.59749e-05 9.03502e-21 -0.0618381
0.0607718 4.33681e-19 0.0114631
0.0312806 -1.807e-20 -0.0536388
-0.0619804 0 -0.00528884
0.0234672 0 -0.0576878
-0.0312208 9.03502e-21 -0.0542966
0.06261 0 0.00189917
-0.0234022 0 -0.0581209
0.0626023 -4.33681e-19 -0.00599037
0.0390931 0 -0.0496103
-0.0622721 0 0.0117006
-0.0622853 4.33681e-19 0.0123711
0.0625932 4.33681e-19 0.0110071
0.0156506 -2.71051e-20 -0.061729
0.0625913 -4.33681e-19 0.0118214
-0.0390224 8.67362e-19 -0.0505101
-0.0155999 -9.03502e-21 -0.0619874
0.0625645 -4.33681e-19 -0.0135243
-0.0621665 7.22801e-20 -0.0156893
0.0547224 0 -0.033693
-0.0546496 0 -0.0355218
-0.0640855 0 0.0120074
0.0643989 0 0.0114545
0.0469085 -1.807e-20 -0.0455918
-0.0645451 -4.33681e-19 0.0122964
0.0647381 -4.33681e-19 0.0118066
-0.0653819 2.1684e-19 0.00971543
0.0655265 -2.1684e-19 0.00926891
-0.0468454 -1.807e-20 -0.0467946
0.00783855 0 -0.065769
-0.00778486 8.67362e-19 -0.0658808
0.066223 4.33681e-19 0.00400193
0.0625328 0 -0.022217
0.0663849 0 -0.000122902
0.0664665 0 -0.00401655
0.0663749 4.33681e-19 -0.00796244
-0.0624031 0 -0.0243837
-0.0684482 3.61401e-19 -0.00137438
0.0547176 -4.33681e-19 -0.0416162
0.0312743 0 -0.0616614
0.0625366 3.61401e-20 -0.0298791
-0.031227 1.807e-20 -0.0621647
-0.0546502 8.67362e-19 -0.0431184
0.0390881 0 -0.0576383
-0.0690391 -1.4456e-19 -0.00941181
0.0234611 0 -0.0656911
1.98301e-05 0 -0.0697955
-0.02341 0 -0.0660212
0.0680567 4.33681e-19 -0.016699
-0.0390296 8.67362e-19 -0.0583357
-0.0624764 -3.61401e-20 -0.0320317
0.0704147 -4.33681e-19 -0.00212759
-0.070377 7.22801e-20 0.00628673
0.0704044 -4.33681e-19 0.00638664
0.046903 -5.42101e-20 -0.0536141
0.0704446 -5.78241e-19 -0.0110311
0.0156447 1.807e-20 -0.0697116
-0.0156058 9.03502e-21 -0.0699066
-0.0468501 1.807e-20 -0.0545569
0.0625342 1.807e-20 -0.0376851
-0.0703553 0 -0.0206487
0.0547137 -8.67362e-19 -0.0496146
-0.0624771 9.03502e-21 -0.0395433
0.00783262 0 -0.0737252
-0.00779135 0 -0.0738096
-0.0546532 -4.33681e-19 -0.0508098
0.0746484 -6.50521e-19 -9.52164e-05
0.0745729 -2.1684e-19 -0.00420408
0.0747995 4.33681e-19 0.00380443
-0.0747522 8.67362e-19 -0.00509123
0.0703507 -8.67362e-19 -0.0259036
0.0746586 4.33681e-19 -0.00792375
-0.0756133 0 0.00198615
-0.0702996 4.33681e-19 -0.0285822
0.0754303 4.33681e-19 0.00923154
0.0743657 4.33681e-19 -0.0156843
0.031269 -1.807e-20 -0.069656
0.0390834 -4.33681e-19 -0.0656463
-0.0755326 -4.33681e-19 0.0117887
-0.0312322 0 -0.0700382
-0.0390363 8.67362e-19 -0.0661816
-0.0760732 0 0.011315
0.0761916 -2.1684e-19 0.0116235
0.023456 -4.33681e-19 -0.0736639
0.0765201 0 0.0112815
0.0625302 1.807e-20 -0.0456313
0.0468977 -9.03502e-21 -0.061632
-0.0234163 0 -0.0739139
1.50353e-05 0 -0.0777276
-0.0468548 0 -0.0623602
0.0703435 0 -0.0338096
0.0782313 0 0.00176433
-0.0624776 -1.807e-20 -0.0471414
0.0782189 0 -0.0061263
-0.0702906 4.33681e-19 -0.0359874
0.0782239 0 0.0108453
0.0782225 0 0.0116093
0.01564 -4.51751e-21 -0.0776636
-0.0785413 -4.33681e-19 0.0106837
-0.0156104 1.35525e-20 -0.0778102
0.0781791 4.33681e-19 -0.0137543
0.0547098 8.67362e-19 -0.0576284
-0.0786045 0 0.0116907
-0.0778833 1.807e-20 -0.0165861
-0.0546581 0 -0.0585638
0.0799097 0 0.0112648
0.0802275 0 0.0115971
0.0781526 -7.22801e-20 -0.0224563
0.0809283 2.1684e-19 0.00924407
0.0815548 0 0.00370326
0.0816615 0 -7.71597e-05
0.0703393 -4.33681e-19 -0.0416875
-0.0810473 0 0.0112932
0.0817189 4.33681e-19 -0.00432931
0.0816269 0 -0.00792566
0.00782788 0 -0.0816536
-0.00779646 0 -0.0817171
-0.0821881 1.4456e-19 -0.00242121
-0.0783494 1.4456e-20 -0.0250895
-0.0817597 0 -0.00997125
0.0625257 -1.807e-20 -0.0536284
-0.0819357 4.33681e-19 0.00867046
-0.0816054 0 0.0118095
-0.0702847 4.33681e-19 -0.0434935
0.0821528 -8.67362e-19 -0.0118484
-0.0624799 -4.51751e-21 -0.0548233
0.0390792 8.67362e-19 -0.0736257
0.0818671 0 -0.0157172
-0.0834858 1.73472e-19 0.00486303
0.0312646 1.35525e-20 -0.0776192
-0.0390421 0 -0.0740329
0.0781578 -1.807e-20 -0.03004
-0.0312364 0 -0.0779073
0.046893 -9.03502e-21 -0.0696272
-0.0468591 2.25875e-20 -0.0701833
-0.0783465 1.807e-21 -0.0325464
0.0234519 0 -0.0816061
-0.0234214 4.33681e-19 -0.0817944
0.054706 8.67362e-19 -0.0656302
1.13418e-05 0 -0.0856352
-0.0546636 4.33681e-19 -0.0663528
0.0860349 -2.1684e-19 -0.00225115
0.0703359 0 -0.049653
0.0860328 2.1684e-19 0.00625408
0.0860212 -4.33681e-19 -0.0100616
0.0781563 -1.807e-20 -0.0377922
-0.0702846 4.33681e-19 -0.0511057
0.0156364 -9.03502e-21 -0.0855867
-0.015614 -4.51751e-21 -0.0856965
0.0625211 -9.03502e-21 -0.061632
0.0859776 -4.33681e-19 -0.0185236
-0.0785689 9.03502e-22 -0.0399633
-0.0624832 4.51751e-21 -0.0625616
-0.0859042 -8.67362e-19 -0.0212544
0.0859704 0 -0.0260744
0.00782419 8.67362e-19 -0.0895567
-0.0078004 -8.67362e-19 -0.0896043
[...]
POINT_DATA 18239
FIELD attributes 1
p 1 18239 float
-72.5764 -73.6973 -74.1323 -71.6849 -73.4891 -70.4253 -72.5249 -71.0755 -72.0128 -75.8357
-72.4232 -73.7215 -71.3479 -72.0402 -72.5289 -71.255 -78.7713 -69.4075 -74.6324 -76.0607
-69.9859 -76.8152 -71.1989 -69.1171 -69.064 -76.3046 -75.2819 -78.0532 -75.3567 -68.8615
-75.9943 -68.8256 -76.0738 -79.6143 -73.4608 -68.4029 -68.2972 -76.4109 -76.5369 -76.5291
-68.2076 -77.9075 -78.1529 -69.7766 -68.8948 -77.5368 -67.9284 -79.9603 -70.1879 -72.6221
-74.8263 -76.4513 -78.6669 -69.0256 -80.9167 -68.2966 -78.67 -75.9544 -80.324 -81.8354
-68.0796 -70.2039 -68.1588 -79.3161 -71.0304 -79.3667 -68.4564 -84.1897 -79.9354 -68.3495
-72.8092 -80.0457 -69.0554 -77.021 -75.6437 -68.211 -76.572 -80.1967 -68.4148 -80.2993
-77.2642 -68.3839 -69.5515 -80.159 -75.8225 -68.6204 -81.9021 -82.5086 -72.1125 -84.6704
-80.761 -70.5972 -70.8821 -71.5079 -73.9982 -72.2666 -76.8113 -85.2235 -77.7329 -70.2075
-75.0589 -75.9477 -70.7529 -78.0089 -69.5379 -81.1717 -75.3231 -77.9507 -68.4005 -68.4315
-81.588 -81.913 -70.4046 -81.559 -70.0964 -74.1446 -71.1058 -79.4307 -72.954 -68.4115
-74.1284 -81.8865 -76.9685 -68.2826 -82.018 -76.1139 -70.9577 -72.4305 -77.2622 -81.8117
-68.1635 -81.8922 -74.8023 -75.4567 -68.0824 -80.8385 -68.3638 -69.1384 -72.1282 -71.2754
-79.2852 -77.5789 -75.0397 -76.7843 -79.0927 -73.6971 -80.5944 -69.4794 -73.6642 -68.0189
-73.0567 -76.0717 -72.214 -70.7388 -74.3252 -76.4342 -75.5545 -76.5578 -72.3438 -71.7875
-76.768 -74.7198 -75.1717 -68.3948 -85.993 -72.8451 -67.8598 -72.8206 -76.2117 -74.239
-88.5678 -67.4981 -84.9495 -88.8625 -74.8669 -67.5399 -73.7137 -75.3478 -74.1009 -75.7168
-68.7744 -75.516 -69.8341 -73.2457 -90.9355 -91.3526 -67.6825 -74.4537 -67.5661 -75.9288
-75.1789 -71.3513 -72.6757 -73.5066 -74.9406 -94.9155 -67.6164 -73.2499 -96.0295 -67.5895
-90.5792 -68.0718 -75.9611 -74.6504 -74.9231 -68.6707 -72.4443 -68.9553 -69.4865 -69.9341
-76.3932 -83.7993 -73.3911 -74.1321 -73.198 -75.231 -75.5698 -73.8337 -80.7319 -74.3383
-74.7248 -75.1052 -71.5983 -75.3525 -76.6997 -69.187 -92.9505 -68.5926 -73.8609 -70.6437
-74.5243 -74.8774 -75.533 -73.6572 -78.6736 -74.0128 -76.562 -74.6062 -74.7191 -75.5843
-69.9355 -70.1563 -69.7026 -88.4207 -72.7012 -70.592 -96.4993 -79.3175 -69.4169 -71.6674
-74.4149 -74.2502 -109.366 -74.8555 -74.9525 -109.217 -69.1659 -74.5005 -69.2804 -74.0236
-74.2775 -74.7631 -74.6138 -75.1153 -73.7198 -70.5607 -76.2672 -71.0513 -78.3739 -69.779
-69.6784 -74.5727 -107.221 -74.6332 -71.866 -74.3463 -108.12 -85.6739 -75.2694 -70.1524
-70.205 -72.5343 -70.6747 -71.2572 -71.3249 -74.0008 -106.566 -71.5802 -71.633 -74.5705
-74.5595 -96.9692 -82.0698 -92.4318 -74.5072 -106.737 -106.123 -77.3772 -72.1296 -75.7905
-74.5686 -72.1949 -106.973 -74.6199 -74.6025 -73.3349 -74.5385 -74.6171 -74.7339 -80.3362
-74.6131 -74.4918 -74.6763 -74.5202 -74.8882 -72.2891 -74.6848 -72.1846 -72.4428 -74.0089
-76.538 -74.6012 -74.4328 -74.8284 -72.6324 -78.6312 -75.2545 -87.0221 -72.9579 -74.5311
-74.4201 -74.7968 -74.5645 -72.6638 -72.7355 -74.886 -74.2975 -83.1801 -72.6302 -72.6109
-74.9807 -72.807 -74.3794 -74.7656 -74.2676 -77.285 -108.816 -72.7051 -75.7699 -74.9714
-72.3542 -74.4931 -73.9106 -74.6902 -72.1269 -74.2605 -108.623 -72.1772 -109.183 -80.3453
-74.4355 -103.971 -75.1345 -72.9065 -93.4483 -73.0808 -74.7358 -72.3526 -72.2737 -74.6146
-75.1007 -72.9527 -74.2599 -88.4007 -110.024 -110.472 -74.394 -76.224 -72.4526 -75.3075
-72.4554 -78.3535 -72.9713 -75.0906 -72.7918 -109.782 -73.171 -73.2413 -73.3218 -73.3535
-83.9845 -108.299 -109.394 -75.0892 -74.962 -74.4923 -74.2988 -74.0553 -74.021 -75.2067
-73.2553 -73.1646 -73.6765 -74.125 -74.8705 -74.0292 -75.1735 -81.1319 -75.4539 -75.3906
-74.2592 -76.8701 -74.745 -75.3538 -74.0607 -74.4626 -74.3598 -73.7041 -75.5813 -73.5411
-92.3764 -78.8663 -73.8048 -106.082 -74.4715 -74.6173 -88.9198 -74.1081 -72.9829 -75.5597
-84.2671 -75.7183 -75.1395 -75.2433 -75.78 -73.7598 -75.3911 -73.3829 -77.2055 -75.0849
-73.7752 -73.7782 -74.6238 -74.4561 -74.1923 -81.736 -75.5955 -74.943 -73.8198 -73.8358
-73.9001 -72.3266 -73.8415 -74.1289 -74.1733 -74.4384 -72.1919 -104.639 -73.6415 -75.8022
-105.618 -74.7759 -73.8811 -79.2933 -73.9478 -75.7342 -75.9653 -105.7 -73.4234 -73.4659
-75.9211 -74.8365 -75.9172 -100.008 -75.8455 -74.2761 -74.1076 -74.4548 -75.1034 -90.4359
-73.7075 -105.131 -73.6564 -105.487 -76.0362 -71.941 -74.5916 -73.9569 -74.0027 -77.4828
-85.3855 -73.7783 -75.3562 -75.5353 -73.7962 -71.292 -73.4948 -73.465 -104.694 -73.8624
-76.1508 -75.1665 -104.13 -74.4376 -74.2127 -74.1224 -74.7559 -73.5624 -75.7585 -104.339
-81.7115 -73.46 -74.8715 -75.8844 -76.2646 -73.0017 -73.4025 -74.9817 -71.897 -74.0971
-73.6152 -75.9817 -76.103 -73.4924 -79.429 -74.4476 -73.9762 -74.9478 -76.239 -73.4796
-74.6996 -73.7373 -77.4708 -76.5139 -76.3166 -74.1669 -105.884 -74.5379 -93.2247 -74.2973
-74.9787 -75.4596 -74.0409 -86.5052 -74.5349 -73.7792 -76.496 -68.0555 -75.891 -75.6383
-73.1768 -75.4191 -73.4951 -73.2425 -75.8831 -73.1312 -81.6907 -76.0023 -71.3868 -76.1257
-74.439 -73.9321 -73.1048 -79.3679 -76.7602 -74.9818 -73.3951 -74.7114 -73.6681 -74.1114
-76.7807 -75.292 -76.3998 -73.209 -76.5872 -71.4627 -73.0331 -74.4866 -97.1802 -73.4407
-97.2597 -75.7489 -75.6773 -70.3219 -74.8553 -76.4757 -76.7955 -77.3275 -96.922 -75.758
-76.6756 -75.8696 -75.9368 -72.9837 -75.7743 -89.8543 -95.3025 -74.1372 -95.5799 -76.4951
-77.4211 -75.7834 -84.2407 -70.4406 -77.0646 -76.3975 -77.0512 -76.4062 -75.6317 -75.976
-72.9356 -74.5396 -73.7236 -72.8217 -73.383 -75.4528 -72.957 -73.9371 -80.7462 -76.2333
-75.3383 -72.7784 -73.1114 -76.6906 -76.9842 -76.7684 -96.0095 -71.1517 -72.887 -93.1525
-76.805 -76.7054 -77.7903 -76.8771 -77.1112 -78.4953 -77.994 -96.113 -76.5218 -74.6425
-72.6521 -73.7513 -75.3104 -75.0254 -73.2879 -73.8991 -76.5207 -72.9167 -77.416 -76.8161
-72.552 -73.1958 -77.2969 -75.6745 -72.8067 -77.3428 -72.7884 -76.0771 -73.6991 -75.1746
-80.0319 -77.1378 -72.418 -76.0308 -72.5072 -77.9144 -78.6471 -77.9574 -77.0536 -80.9338
-75.5121 -72.8315 -78.7211 -74.5054 -73.6246 -74.1071 -77.667 -76.6011 -77.7847 -72.3153
-72.5758 -75.9418 -72.9618 -76.8779 -77.4679 -79.8311 -76.4277 -72.2813 -78.0845 -72.2923
-76.912 -72.2772 -72.1737 -77.7861 -75.1471 -73.2529 -77.4286 -76.7283 -73.1473 -77.4285
-74.2357 -77.2487 -77.5418 -72.0191 -78.0538 -78.9854 -78.7877 -79.6288 -80.276 -81.606
-77.8518 -72.3286 -72.0553 -77.3642 -79.0835 -78.2229 -76.104 -72.3275 -79.2916 -69.6524
-73.3513 -72.5461 -76.4832 -79.3063 -72.146 -72.1431 -71.4852 -73.3135 -74.0255 -77.5914
-76.6578 -75.5472 -79.2198 -72.6467 -80.0209 -71.9554 -74.3725 -71.8553 -76.1335 -79.4673
-79.4965 -76.885 -71.8951 -74.7136 -78.2874 -79.584 -71.7445 -79.6229 -72.6518 -79.5222
-78.2524 -79.9589 -79.3958 -79.3207 -80.2027 -73.6053 -78.5301 -71.8044 -71.9565 -77.9845
-77.3329 -82.931 -75.0294 -73.0388 -71.6572 -71.6099 -77.2864 -57.8842 -73.1472 -78.714
-79.7686 -82.9447 -56.5368 -72.0192 -79.951 -76.9193 -71.7372 -77.6754 -72.5125 -71.4955
-78.7219 -76.7081 -71.7898 -78.3896 -71.4485 -71.3476 -79.8291 -64.5639 -79.0517 -71.3007
-68.4738 -79.8024 -80.6856 -80.0873 -71.9237 -71.505 -72.4889 -78.0744 -74.4783 -73.4938
-71.2289 -77.391 -71.6204 -71.3032 -86.2809 -79.8684 -47.1909 -86.5969 -71.4046 -71.7581
-78.8521 -88.3566 -71.0131 -79.2302 -83.5631 -71.0314 -78.4889 -70.9559 -71.4334 -79.8769
-76.1646 -71.9632 -71.9622 -76.7359 -71.567 -51.5572 -70.9412 -82.1691 -70.9227 -80.7909
-82.8074 -78.1301 -80.8639 -81.2253 -81.4271 -70.8932 -77.8853 -50.5118 -70.9464 -84.6169
-71.0237 -80.9241 -75.5868 -72.3902 -81.0748 -79.3508 -81.0774 -78.9353 -77.4451 -73.9091
-67.1147 -71.0915 -70.6301 -70.6344 -81.1068 -61.7779 -81.6349 -69.4952 -81.5157 -81.1061
-81.1159 -79.931 -83.5788 -70.6656 -70.7289 -70.5332 -81.154 -78.5417 -81.1662 -60.0873
-70.609 -81.1969 -88.0478 -81.2402 -81.4627 -81.8843 -82.0129 -70.4874 -77.9327 -70.7762
-86.545 -74.9967 -72.862 -72.8609 -80.9643 -83.6568 -70.4797 -84.027 -70.2809 -70.5577
-79.4153 -78.1739 -65.9841 -70.5345 -70.2708 -79.9618 -67.3158 -83.064 -78.987 -70.164
-70.3049 -70.1917 -78.45 -70.3976 -80.7804 -82.6473 -69.9597 -69.8929 -67.6312 -82.7197
-68.027 -81.7538 -70.4801 -83.3317 -79.9803 -69.6399 -79.4472 -69.9638 -69.8385 -82.0353
-84.4874 -86.2264 -69.0909 -78.4585 -80.6625 -70.2456 -69.6035 -79.0252 -78.1996 -86.0205
-70.3574 -70.0028 -69.6368 -69.4432 -82.7538 -76.7887 -71.246 -81.625 -76.1699 -69.2736
-76.1708 -71.6616 -71.6609 -69.3227 -79.979 -77.4867 -70.6812 -69.5477 -69.2514 -83.7703
-80.6036 -79.4703 -69.6912 -69.3579 -69.0302 -68.3932 -83.9312 -83.6114 -81.9662 -81.787
-82.8338 -82.9355 -81.4156 -79.1028 -81.0763 -69.7006 -83.1418 -81.0495 -69.0652 -81.0386
-68.2767 -78.2113 -81.7773 -70.1211 -67.5097 -68.849 -82.8174 -68.6325 -80.9833 -80.978
-66.3133 -83.5874 -68.9336 -80.9042 -80.8889 -80.9236 -85.431 -79.9693 -81.5626 -80.5514
-82.7549 -81.8709 -82.9013 -69.29 -69.0955 -68.574 -82.5231 -83.5654 -79.4945 -84.1782
-81.2671 -68.6166 -74.8898 -72.6207 -83.7539 -68.8214 -66.7892 -68.5552 -67.2447 -83.2654
-68.3149 -79.0239 -82.2345 -69.5235 -68.4328 -69.216 -80.5021 -68.861 -83.6156 -79.9617
-81.1616 -69.053 -69.9021 -68.6015 -68.1052 -79.4731 -69.4599 -68.2735 -82.2246 -80.4586
-81.986 -83.1352 -83.1127 -67.5474 -69.0861 -68.231 -83.87 -67.9302 -84.7963 -69.0804
-67.831 -84.1183 -80.4576 -81.0707 -67.8883 -77.4704 -68.6444 -70.4065 -68.3991 -82.809
-82.4902 -79.9393 -68.7906 -67.7661 -81.8164 -67.6175 -68.0599 -78.2111 -69.7908 -84.0497
-71.1658 -67.3363 -82.6053 -68.5791 -71.3524 -67.6211 -80.9886 -83.3898 -83.216 -68.2157
-83.4967 -81.8885 -80.4246 -81.6683 -82.5728 -82.6754 -81.675 -67.2026 -67.8926 -70.7922
-81.1748 -73.6893 -81.1628 -81.8441 -81.1712 -72.8916 -82.6119 -68.989 -81.2162 -81.213
-72.833 -79.8854 -78.979 -83.1988 -81.2462 -81.2527 -69.1702 -68.6709 -81.2576 -68.0843
-81.8753 -82.6054 -81.92 -82.6148 -82.4185 -84.5232 -83.2887 -68.4858 -67.4811 -67.1373
-67.0506 -83.1056 -83.8108 -83.2651 -77.883 -66.9049 -80.914 -69.6389 -68.0438 -81.5543
-79.7443 -67.7472 -83.7886 -83.1904 -80.3649 -66.9627 -66.624 -82.2648 -67.3534 -84.2075
-79.7852 -68.5078 -66.442 -83.0109 -66.857 -81.4405 -83.8709 -67.6102 -80.8403 -76.0757
-69.8331 -67.8576 -82.5058 -82.1434 -66.3424 -82.124 -82.5929 -77.3828 -70.0734 -68.7242
-86.0906 -67.231 -83.3549 -84.4373 -66.5969 -84.3042 -82.8607 -83.7721 -66.2204 -76.1068
-71.2325 -66.776 -66.2713 -83.6854 -65.9002 -81.3332 -83.2001 -81.9931 -67.1211 -84.929
-80.7538 -78.9134 -83.6354 -68.8776 -67.748 -65.6406 -66.2242 -82.7069 -79.9123 -66.6848
-71.7037 -83.4797 -84.3475 -77.7734 -65.5853 -84.0411 -67.2864 -83.9371 -83.7249 -83.7054
-83.793 -83.4682 -83.7975 -69.4103 -71.541 -71.5175 -83.8032 -71.5411 -66.1781 -83.8539
-67.4817 -83.8625 -81.8704 -83.9113 -83.9085 -83.8935 -84.1812 -83.8847 -84.349 -67.0223
-81.2385 -66.3494 -65.528 -85.5025 -82.5597 -79.7084 -71.0032 -68.2612 -66.5992 -65.2112
-84.3388 -84.4626 -67.2017 -85.2278 -74.8227 -72.4242 -64.9867 -83.3072 -84.2601 -66.1369
-65.5418 -66.9499 -85.2661 -64.8233 -65.968 -81.757 -85.8662 -66.9043 -82.418 -85.442
-66.5276 -64.7584 -84.0802 -65.5337 -83.1413 -66.0932 -80.5927 -85.1137 -67.5109 -85.2445
-64.7795 -66.5419 -65.4104 -66.6458 -85.1896 -85.1306 -65.8702 -61.0575 -83.921 -85.717
-65.5449 -64.0994 -82.2897 -86.3644 -85.0184 -81.6594 -66.8296 -64.8247 -63.9207 -82.9775
-66.1732 -66.0491 -69.4991 -85.8644 -66.6262 -85.259 -63.9013 -84.8235 -83.7401 -85.5406
-65.5413 -86.5834 -64.8858 -63.844 -87.135 -82.1667 -85.902 -82.817 -85.2863 -83.7095
-66.0179 -81.5304 -63.9572 -66.7011 -85.744 -83.2902 -84.6138 -85.1847 -84.205 -64.9368
-83.5584 -86.3514 -63.5311 -86.2999 -65.547 -82.9228 -63.8498 -73.5656 -63.1771 -85.8544
-64.1192 -63.3934 -85.9728 -84.5046 -64.0427 -63.1327 -86.4174 -63.3129 -82.7163 -84.8095
-87.8574 -62.6752 -82.5899 -86.5014 -62.4826 -86.6183 -62.6253 -84.4076 -64.9823 -87.6417
-80.46 -67.3346 -85.6092 -82.6607 -62.0174 -66.11 -62.7252 -64.1833 -62.1257 -61.7659
-83.3739 -65.5221 -87.3595 -62.8794 -82.3251 -86.4274 -85.5906 -88.2141 -85.3442 -87.2321
-84.1939 -77.3322 -69.8122 -64.2824 -88.0828 -65.0158 -63.0566 -82.5054 -78.7611 -68.4798
-86.7896 -65.9392 -83.1863 -63.2667 -85.1096 -64.3851 -63.3147 -60.2218 -87.0169 -66.1448
-62.0512 -83.9833 -81.3465 -66.5734 -65.0345 -87.916 -86.5536 -76.0395 -71.0275 -86.5316
-61.1082 -63.4624 -86.5946 -89.3196 -61.3206 -81.8421 -87.1283 -84.8592 -88.3558 -64.4573
-61.735 -86.2194 -83.0001 -63.6456 -88.633 -83.777 -65.0392 -62.021 -89.5225 -89.3571
-87.8059 -54.1148 -85.9095 -80.2589 -67.0883 -84.6176 -62.3932 -63.795 -64.5172 -53.2735
-52.976 -87.5952 -62.6668 -82.223 -55.9148 -88.2799 -65.8332 -88.2342 -83.5778 -53.5436
-51.8856 -57.6583 -65.0462 -51.7629 -87.9356 -88.288 -85.6116 -59.31 -63.921 -88.3166
-88.3948 -90.161 -84.3831 -59.7061 -64.5513 -87.1548 -62.9528 -90.1031 -74.7462 -72.2695
-51.248 -60.4084 -50.3085 -81.5098 -51.1028 -69.7115 -89.6106 -61.0185 -85.3177 -64.0198
-86.7682 -83.4018 -63.1614 -90.3975 -89.273 -90.3215 -61.5161 -84.1645 -89.0504 -88.445
-88.5484 -86.4153 -61.9435 -63.3496 -85.0371 -64.0928 -36.7417 -89.7455 -47.7793 -52.0324
-88.2578 -56.4357 -83.168 -65.0383 -62.2876 -89.774 -57.5392 -83.9603 -91.5576 -86.062
-63.4911 -58.7427 -81.961 -65.7444 -84.7689 -87.7575 -64.1612 -90.6676 -37.2914 -62.5785
-59.7961 -37.9499 -36.7334 -90.7878 -60.4982 -85.7317 -63.613 -87.3156 -34.9329 -62.8082
-89.8631 -92.1135 -91.9859 -61.138 -84.5175 -89.4612 -61.5679 -90.3273 -86.8957 -35.1631
-62.9973 -85.4159 -49.4867 -63.6892 -73.5078 -42.9654 -35.4489 -53.9014 -36.6347 -90.5872
-90.5819 -90.5466 -90.5895 -90.594 -90.6055 -56.6048 -90.6157 -92.9906 -88.8186 -91.8693
-61.9584 -57.8201 -82.8469 -65.0201 -84.2745 -92.9507 -78.642 -68.2874 -64.2596 -58.9411
-86.4973 -90.8789 -77.2569 -69.6044 -63.1483 -92.2631 -92.1461 -88.2883 -85.1122 -59.803
-62.2389 -31.2728 -93.5678 -91.5585 -60.4603 -93.3038 -30.6682 -80.9004 -86.1274 -63.2664
-87.7905 -62.4814 -90.7474 -60.9922 -80.0705 -66.9455 -84.8329 -38.0262 -90.0884 -76.0015
-70.9369 -46.1373 -51.7459 -61.4044 -55.5936 -87.3148 -62.6664 -93.0559 -85.7828 -56.7888
-63.3463 -95.2024 -58.0722 -89.3936 -61.7445 -83.8398 -26.5639 -64.2896 -93.7345 -59.1153
-86.8805 -62.8222 -93.3957 -59.779 -88.7869 -85.4683 -62.0112 -63.4392 -92.1859 -60.4123
-95.7969 -70.0682 -95.4632 -86.4813 -35.0078 -62.941 -88.218 -91.4803 -62.2305 -60.843
-34.1419 -81.5509 -65.61 -92.9216 -85.2123 -51.4484 -47.8755 -54.6609 -93.1562 -43.241
-90.594 -56.6383 -61.2436 -96.4651 -57.6039 -93.1546 -87.6938 -96.2974 -62.4067 -43.8198
-86.1219 -58.5574 -89.8737 -61.5346 -95.1504 -59.3135 -83.5164 -64.2747 -84.8924 -63.5148
-50.2428 -96.7386 -94.1586 -51.6698 -87.216 -62.5469 -59.9066 -96.6244 -89.1954 -61.7885
-85.8062 -93.0021 -60.4045 -92.0369 -86.7785 -62.6715 -88.5714 -60.7978 -61.985 -53.2444
-54.6739 -56.7544 -52.8889 -59.0439 -95.2364 -57.3209 -91.0962 -99.0631 -61.13 -58.1049
-88.0083 -97.133 -62.1527 -58.9075 -86.38 -80.4955 -96.3459 -90.2823 -59.4333 -61.3938
-84.4518 -63.5854 -94.7124 -83.1199 -64.1911 -59.9902 -87.4936 -62.2713 -99.2648 -99.0592
-89.5361 -58.4795 -61.6143 -86.0068 -68.1961 -78.5826 -62.8521 -93.633 -60.3659 -57.8975
-95.4663 -54.5807 -92.4421 -53.9922 -56.0137 -60.7347 -87.017 -88.8669 -79.9084 -66.7879
-96.2243 -55.0533 -61.7942 -57.1727 -100.281 -55.7712 -57.7948 -100.423 -58.5094 -91.4761
-96.2352 -61.0047 -98.4074 -59.113 -88.2679 -56.0692 -61.9397 -86.5749 -56.2468 -96.9301
-100.715 -59.6054 -90.5845 -100.479 -61.2463 -95.3364 -60.0359 -85.373 -62.9452 -87.7303
-62.043 -89.7936 -61.4369 -94.0087 -81.3089 -65.5221 -60.3798 -55.031 -55.6692 -55.2208
-57.0127 -98.733 -56.0522 -57.4832 -92.7757 -60.6784 -103.582 -87.2504 -89.0943 -62.1649
-61.6018 -58.1583 -100.748 -58.8427 -91.7227 -60.9179 -99.4171 -59.2529 -88.4757 -61.7328
-97.2558 -86.8645 -59.7357 -90.7819 -61.1213 -104.131 -103.757 -84.8529 -62.9992 -95.7508
-55.5838 -99.1784 -60.0462 -55.3426 -87.9352 -89.9581 -61.2889 -94.213 -55.7207 -60.3691
-86.3867 -55.1458 -56.8155 -62.2894 -100.606 -54.811 -57.5932 -54.6745 -105.327 -57.9912
-92.974 -82.7542 -104.954 -64.2154 -60.6031 -58.5624 -89.2349 -87.4746 -61.4264 -80.2327
-101.747 -59.0462 -100.658 -54.5925 -54.6341 -91.8575 -99.6468 -60.8164 -106.115 -59.4428
-105.488 -88.5995 -61.5483 -97.5329 -59.8027 -90.8928 -60.9849 -95.8059 -60.0895 -85.7614
-62.391 -88.0446 -55.68 -56.7342 -54.892 -57.8613 -94.2673 -90.0523 -103.668 -61.1316
-60.3448 -54.3263 -57.8967 -109.486 -58.3379 -104.474 -58.893 -92.9759 -60.5496 -102.373
-89.3178 -61.2393 -87.5346 -61.7263 -59.184 -99.5593 -59.5909 -91.848 -60.7254 -109.399
-108.604 -103.928 -97.5758 -59.8335 -88.6695 -54.397 -54.334 -90.88 -60.8711 -95.6902
-60.1064 -84.117 -56.4807 -65.4639 -63.0451 -81.2054 -55.593 -57.4371 -105.658 -54.6308
-58.0889 -110.196 -54.2696 -88.0996 -58.2616 -94.1959 -60.2992 -90.0454 -60.9912 -108.717
-58.6901 -86.6954 -61.8303 -104.388 -59.0696 -54.3335 -105.539 -92.8783 -54.3946 -60.4787
-101.805 -111.338 -59.377 -89.3261 -61.0778 -109.715 -99.2152 -59.6668 -91.7647 -60.621
-97.1488 -59.8925 -88.7098 -61.1802 -90.8112 -60.7463 -95.3592 -56.4499 -57.1816 -60.0992
-108.49 -55.5155 -58.2506 -82.5024 -64.1399 -54.5347 -58.2244 -112.617 -58.5189 -86.1627
-61.8732 -93.8765 -88.2374 -60.2629 -106.438 -58.9983 -90.0009 -60.8474 -104.296 -59.1939
-92.6034 -60.4046 -101.013 -59.5334 -111.287 -113.095 -89.3167 -87.6727 -61.2706 -98.7256
-59.7058 -108.417 -91.5262 -60.5222 -55.1098 -55.1116 -96.612 -59.9223 -88.7537 -57.176
-58.0501 -109.456 -56.3894 -112.873 -55.5386 -58.5281 -90.6086 -60.6196 -94.9437 -55.2363
-60.0676 -58.5834 -110.655 -85.571 -61.8514 -58.8944 -108.706 -105.624 -59.1768 -55.4157
-93.4913 -60.2054 -55.4908 -89.8284 -60.7042 -113.663 -102.862 -59.3922 -112.014 -86.9609
-61.3701 -83.7499 -63.0378 -99.9841 -92.2812 -60.3127 -59.6069 -89.1657 -97.7608 -59.7649
-112.871 -91.2488 -60.4084 -109.766 -95.8499 -59.9166 -57.2169 -57.9483 -56.493 -58.8175
-114.634 -56.1154 -58.704 -88.5673 -60.823 -58.8345 -90.3744 -94.2762 -60.4763 -60.0342
-106.902 -59.2174 -118.927 -116.813 -104.889 -59.2907 -92.9373 -60.1367 -101.271 -89.6221
-59.5465 -115.669 -98.9403 -59.639 -119.505 -91.8145 -60.2212 -57.0362 -96.775 -88.9706
-59.7908 -87.6084 -60.8972 -57.0797 -90.86 -60.2904 -119.001 -58.5727 -58.102 -59.0686
-119.343 -95.0746 -59.8848 -57.5386 -59.2635 -57.3776 -59.044 -116.327 -119.34 -110.999
-114.559 -59.1728 -117.126 -93.5987 -90.051 -59.9785 -105.905 -60.3393 -118.875 -59.3311
-57.7973 -118.343 -57.9335 -102.972 -85.0227 -61.9227 -59.4429 -92.3803 -60.0499 -99.8718
-59.5798 -89.3857 -60.3974 -97.6193 -86.9097 -60.9357 -59.6692 -112.233 -91.3492 -60.1135
-95.6905 -59.7651 -88.8879 -113.663 -59.6706 -59.55 -59.1698 -59.9204 -58.8953 -90.4685
-59.3979 -60.1633 -94.1222 -59.8363 -132.579 -59.1994 -106.97 -59.4353 -63.0066 -83.6114
-88.283 -60.4436 -104.948 -59.3766 -92.8048 -59.8997 -89.7397 -111.546 -100.818 -59.555
-91.7143 -59.9516 -98.4766 -59.577 -89.2107 -96.2969 -59.6689 -59.1907 -90.8064 -59.9937
-59.1431 -118.546 -119.268 -94.622 -59.6457 -59.715 -59.5217 -59.7622 -59.1649 -59.7325
-117.56 -59.1484 -59.3524 -59.0816 -87.5171 -60.5045 -116.538 -119.93 -59.3622 -108.13
-90.0494 -60.0275 -59.3614 -93.1975 -59.7666 -104.484 -59.1653 -59.3655 -59.217 -59.4265
-119.867 -117.839 -101.651 -59.4532 -92.0448 -59.8034 -89.4607 -98.7249 -59.5286 -86.0137
-60.9545 -96.6726 -59.5613 -91.0842 -59.8395 -88.8386 -60.0644 -84.7205 -61.8734 -94.8635
-59.6097 -112.298 -90.3246 -59.8584 -59.6251 -59.869 -59.9245 -59.5785 -59.5383 -106.901
-59.5379 -93.4124 -59.6409 -111.238 -59.296 -110.954 -103.887 -59.5155 -92.2055 -59.6691
-102.191 -59.3758 -98.6995 -59.5048 -91.2182 -87.9636 -60.0877 -59.6908 -96.9305 -59.4765
-89.5388 -95.0007 -59.5223 -110.981 -113.638 -90.422 -59.7062 -89.0709 -60.0914 -60.0927
-93.5419 -59.5321 -60.0372 -60.1261 -60.0378 -112.162 -59.9533 -60.1053 -60.1952 -112.84
-60.1906 -89.8496 -59.7142 -59.5026 -108.392 -92.2923 -59.5496 -59.4229 -104.143 -60.4619