# vtk DataFile Version 2.0
sampleSurface
ASCII
DATASET POLYDATA
POINTS 18239 float
7.37118e-05 -8.67362e-19 0.00245418
9.63548e-05 -4.33681e-19 -0.00548565
-0.00769806 -3.61401e-20 -0.00147063
0.00794388 0 -0.00158692
-0.00773518 7.22801e-20 0.0058872
0.00793362 0 0.00567492
-0.00364585 -4.33681e-19 0.00949261
0.00357675 0 0.00953232
-2.46316e-06 -4.33681e-19 0.0116078
-0.00772273 0 -0.00933631
-0.00197666 0 0.0120428
0.00786491 0 -0.00935682
0.00200081 0 0.0120951
-5.36449e-06 0 0.0124328
-0.00234888 4.33681e-19 0.0124008
0.00236663 4.33681e-19 0.0124564
-1.74039e-05 8.67362e-19 -0.013188
0.0120963 2.1684e-19 0.009396
-0.0120741 0 0.00966407
-0.015558 0 0.00259184
0.0157256 -4.33681e-19 0.00230339
-0.0154718 4.33681e-19 -0.00541726
0.0157243 -4.33681e-19 -0.0055977
0.0132846 -4.33681e-19 0.0123014
0.013665 -8.67362e-19 0.0119268
0.00791005 -1.4456e-19 -0.0163879
-0.0133933 0 0.0125481
-0.00778438 1.4456e-19 -0.0166214
-0.0137437 0 0.0122097
0.015671 4.33681e-19 0.0114686
-0.0156778 0 0.0117479
0.015668 0 0.0123255
-0.015681 0 0.0125176
-0.0155539 0 -0.0131551
0.0156306 0 -0.0131143
0.0191295 -2.1684e-19 0.00944697
0.0176898 0 0.0119661
-0.017569 -4.33681e-19 0.0121544
-0.0192721 4.33681e-19 0.00964984
-0.0179195 0 0.0124878
0.0180595 4.33681e-19 0.01234
7.17968e-05 1.0842e-19 -0.021994
-0.0232966 1.4456e-19 -0.00140161
0.0236024 2.89121e-19 -0.00173122
0.0236529 2.1684e-19 0.00470477
-0.0233759 -7.22801e-20 0.00605485
0.0235037 0 0.00679588
-0.0231601 0 -0.00933107
0.0235431 -4.69821e-19 -0.0093987
0.0156881 7.22801e-20 -0.0218273
0.00809462 4.33681e-19 -0.0256905
-0.00736353 8.67362e-19 -0.0261413
-0.0155647 3.61401e-20 -0.0225121
0.0235348 4.33681e-19 -0.016291
-0.0232773 0 -0.0168198
0.027923 0 0.00934127
-0.0278514 -4.33681e-19 0.00987277
7.58323e-05 -3.61401e-20 -0.0299653
-0.0311636 0 0.00273536
-0.03089 -8.67362e-19 -0.00549911
0.0289697 -4.33681e-19 0.0121552
0.0313541 4.33681e-19 0.00212258
0.029347 4.33681e-19 0.0117762
-0.0292135 0 0.0125974
0.0313532 -4.33681e-19 -0.00575138
-0.0295381 -4.33681e-19 0.0122929
0.0313174 0 0.0113089
-0.0307831 0 -0.0131362
-0.0313122 0 0.0118791
0.0313145 -4.33681e-19 0.0121694
0.0156907 0 -0.0297295
-0.0313167 0 0.0125703
0.0313247 0 -0.0131599
-0.0155614 3.61401e-20 -0.03046
0.00787564 0 -0.0337773
0.0235255 0 -0.0255749
-0.00772481 4.33681e-19 -0.034118
-0.0330406 0 0.0122396
0.0332879 4.33681e-19 0.0117972
-0.0333606 2.1684e-19 0.0125382
-0.0233948 -8.67362e-19 -0.0268943
0.0336536 0 0.012171
0.0346237 2.1684e-19 0.00936863
-0.0346626 -2.1684e-19 0.00989479
5.79873e-05 1.807e-20 -0.0378891
0.0312965 7.22801e-20 -0.0218455
-0.0311433 0 -0.0229178
-0.0390193 0 -0.00156665
0.0391935 -1.807e-19 -0.00186273
-0.0381468 1.4456e-19 -0.00944956
-0.0389377 0 0.00616431
0.0391748 -2.1684e-19 0.00444132
0.039142 2.1684e-19 0.00665929
0.0391963 -7.22801e-20 -0.00951071
0.015678 -3.61401e-20 -0.0376699
0.0234882 -4.33681e-19 -0.0336314
-0.0155725 -3.61401e-20 -0.038258
-0.0379996 0 -0.0170081
-0.0233795 4.33681e-19 -0.0345719
0.0391718 4.33681e-19 -0.0163177
0.0078662 -4.33681e-19 -0.0417652
-0.00774979 -8.67362e-19 -0.0420222
0.0313021 3.61401e-20 -0.0296718
-0.0311972 3.61401e-20 -0.0309365
0.0437374 0 0.00929172
-0.0436203 -2.1684e-19 0.0100544
4.40842e-05 0 -0.0458684
-0.0441645 8.67362e-19 -0.0131697
0.0446788 0 0.0119989
0.0450439 0 0.0116251
-0.0449381 2.1684e-19 0.0125565
-0.0466368 8.67362e-19 0.00286316
0.0391134 0 -0.0256174
-0.0452347 -2.1684e-19 0.012281
0.0469785 -4.33681e-19 0.00204148
-0.0468662 0 -0.00621121
0.0469785 -4.33681e-19 -0.00585833
-0.0390215 0 -0.0273976
0.0234815 4.33681e-19 -0.0416254
0.0469536 0 0.0111577
0.0156669 -1.807e-20 -0.04569
-0.0468371 0 0.0119074
-0.0233838 -4.33681e-19 -0.0423606
0.0469511 4.33681e-19 0.0120003
-0.0468437 0 0.0125273
-0.0155835 3.61401e-20 -0.0461389
0.0469479 -4.33681e-19 -0.0133452
0.0312953 3.61401e-20 -0.0375856
-0.0312058 1.807e-20 -0.0386643
-0.0484241 0 0.012225
0.0488558 0 0.0116306
-0.0487324 -2.1684e-19 0.012497
0.00785517 -4.33681e-19 -0.0497792
-0.00776557 8.67362e-19 -0.0499733
0.0492097 -4.33681e-19 0.011997
-0.0498686 4.33681e-19 0.0100733
0.0500966 6.50521e-19 0.00930639
0.050899 0 0.00431535
0.0391025 0 -0.0336186
0.0469135 0 -0.0220115
-0.0467018 -3.61401e-20 -0.0234239
-0.0390131 0 -0.0350342
3.38505e-05 3.61401e-20 -0.0538585
-0.0512022 0 -0.0175777
-0.054201 3.61401e-20 -0.00149426
-0.0534592 -2.1684e-19 -0.00987976
-0.0542603 4.33681e-19 0.0061529
0.0548491 -1.4456e-19 -0.00198023
0.0234741 4.33681e-19 -0.0496601
0.0547741 0 0.00653115
0.0312877 0 -0.0456027
-0.0233932 0 -0.0502255
0.0469174 -3.61401e-20 -0.029745
0.0548247 -1.4456e-19 -0.0096559
0.0156579 -3.61401e-20 -0.053718
-0.0312137 -1.807e-20 -0.0464534
-0.0155926 -1.807e-20 -0.0540591
-0.0468315 -5.42101e-20 -0.0314451
0.0390979 -4.33681e-19 -0.041585
0.0547886 1.4456e-19 -0.0164164
-0.0390158 0 -0.0427316
0.00784598 -4.33681e-19 -0.0577852
-0.00777652 0 -0.0579326
0.0588686 -4.33681e-19 0.00411351
-0.0589488 2.1684e-19 0.00985395
0.0469137 -1.807e-20 -0.0376053
0.0595582 2.1684e-19 0.00924969
0.0547318 -4.33681e-19 -0.0257431
-0.0468408 1.807e-20 -0.039098
-0.0546429 -4.33681e-19 -0.0279938
-0.0602611 2.1684e-19 0.0124037
0.0604206 2.1684e-19 0.0118249
-0.0616439 0 0.0027911
-0.0605866 0 0.0121041
2.59749e-05 9.03502e-21 -0.0618381
0.0607718 4.33681e-19 0.0114631
0.0312806 -1.807e-20 -0.0536388
-0.0619804 0 -0.00528884
0.0234672 0 -0.0576878
-0.0312208 9.03502e-21 -0.0542966
0.06261 0 0.00189917
-0.0234022 0 -0.0581209
0.0626023 -4.33681e-19 -0.00599037
0.0390931 0 -0.0496103
-0.0622721 0 0.0117006
-0.0622853 4.33681e-19 0.0123711
0.0625932 4.33681e-19 0.0110071
0.0156506 -2.71051e-20 -0.061729
0.0625913 -4.33681e-19 0.0118214
-0.0390224 8.67362e-19 -0.0505101
-0.0155999 -9.03502e-21 -0.0619874
0.0625645 -4.33681e-19 -0.0135243
-0.0621665 7.22801e-20 -0.0156893
0.0547224 0 -0.033693
-0.0546496 0 -0.0355218
-0.0640855 0 0.0120074
0.0643989 0 0.0114545
0.0469085 -1.807e-20 -0.0455918
-0.0645451 -4.33681e-19 0.0122964
0.0647381 -4.33681e-19 0.0118066
-0.0653819 2.1684e-19 0.00971543
0.0655265 -2.1684e-19 0.00926891
-0.0468454 -1.807e-20 -0.0467946
0.00783855 0 -0.065769
-0.00778486 8.67362e-19 -0.0658808
0.066223 4.33681e-19 0.00400193
0.0625328 0 -0.022217
0.0663849 0 -0.000122902
0.0664665 0 -0.00401655
0.0663749 4.33681e-19 -0.00796244
-0.0624031 0 -0.0243837
-0.0684482 3.61401e-19 -0.00137438
0.0547176 -4.33681e-19 -0.0416162
0.0312743 0 -0.0616614
0.0625366 3.61401e-20 -0.0298791
-0.031227 1.807e-20 -0.0621647
-0.0546502 8.67362e-19 -0.0431184
0.0390881 0 -0.0576383
-0.0690391 -1.4456e-19 -0.00941181
0.0234611 0 -0.0656911
1.98301e-05 0 -0.0697955
-0.02341 0 -0.0660212
0.0680567 4.33681e-19 -0.016699
-0.0390296 8.67362e-19 -0.0583357
-0.0624764 -3.61401e-20 -0.0320317
0.0704147 -4.33681e-19 -0.00212759
-0.070377 7.22801e-20 0.00628673
0.0704044 -4.33681e-19 0.00638664
0.046903 -5.42101e-20 -0.0536141
0.0704446 -5.78241e-19 -0.0110311
0.0156447 1.807e-20 -0.0697116
-0.0156058 9.03502e-21 -0.0699066
-0.0468501 1.807e-20 -0.0545569
0.0625342 1.807e-20 -0.0376851
-0.0703553 0 -0.0206487
0.0547137 -8.67362e-19 -0.0496146
-0.0624771 9.03502e-21 -0.0395433
0.00783262 0 -0.0737252
-0.00779135 0 -0.0738096
-0.0546532 -4.33681e-19 -0.0508098
0.0746484 -6.50521e-19 -9.52164e-05
0.0745729 -2.1684e-19 -0.00420408
0.0747995 4.33681e-19 0.00380443
-0.0747522 8.67362e-19 -0.00509123
0.0703507 -8.67362e-19 -0.0259036
0.0746586 4.33681e-19 -0.00792375
-0.0756133 0 0.00198615
-0.0702996 4.33681e-19 -0.0285822
0.0754303 4.33681e-19 0.00923154
0.0743657 4.33681e-19 -0.0156843
0.031269 -1.807e-20 -0.069656
0.0390834 -4.33681e-19 -0.0656463
-0.0755326 -4.33681e-19 0.0117887
-0.0312322 0 -0.0700382
-0.0390363 8.67362e-19 -0.0661816
-0.0760732 0 0.011315
0.0761916 -2.1684e-19 0.0116235
0.023456 -4.33681e-19 -0.0736639
0.0765201 0 0.0112815
0.0625302 1.807e-20 -0.0456313
0.0468977 -9.03502e-21 -0.061632
-0.0234163 0 -0.0739139
1.50353e-05 0 -0.0777276
-0.0468548 0 -0.0623602
0.0703435 0 -0.0338096
0.0782313 0 0.00176433
-0.0624776 -1.807e-20 -0.0471414
0.0782189 0 -0.0061263
-0.0702906 4.33681e-19 -0.0359874
0.0782239 0 0.0108453
0.0782225 0 0.0116093
0.01564 -4.51751e-21 -0.0776636
-0.0785413 -4.33681e-19 0.0106837
-0.0156104 1.35525e-20 -0.0778102
0.0781791 4.33681e-19 -0.0137543
0.0547098 8.67362e-19 -0.0576284
-0.0786045 0 0.0116907
-0.0778833 1.807e-20 -0.0165861
-0.0546581 0 -0.0585638
0.0799097 0 0.0112648
0.0802275 0 0.0115971
0.0781526 -7.22801e-20 -0.0224563
0.0809283 2.1684e-19 0.00924407
0.0815548 0 0.00370326
0.0816615 0 -7.71597e-05
0.0703393 -4.33681e-19 -0.0416875
-0.0810473 0 0.0112932
0.0817189 4.33681e-19 -0.00432931
0.0816269 0 -0.00792566
0.00782788 0 -0.0816536
-0.00779646 0 -0.0817171
-0.0821881 1.4456e-19 -0.00242121
-0.0783494 1.4456e-20 -0.0250895
-0.0817597 0 -0.00997125
0.0625257 -1.807e-20 -0.0536284
-0.0819357 4.33681e-19 0.00867046
-0.0816054 0 0.0118095
-0.0702847 4.33681e-19 -0.0434935
0.0821528 -8.67362e-19 -0.0118484
-0.0624799 -4.51751e-21 -0.0548233
0.0390792 8.67362e-19 -0.0736257
0.0818671 0 -0.0157172
-0.0834858 1.73472e-19 0.00486303
0.0312646 1.35525e-20 -0.0776192
-0.0390421 0 -0.0740329
0.0781578 -1.807e-20 -0.03004
-0.0312364 0 -0.0779073
0.046893 -9.03502e-21 -0.0696272
-0.0468591 2.25875e-20 -0.0701833
-0.0783465 1.807e-21 -0.0325464
0.0234519 0 -0.0816061
-0.0234214 4.33681e-19 -0.0817944
0.054706 8.67362e-19 -0.0656302
1.13418e-05 0 -0.0856352
-0.0546636 4.33681e-19 -0.0663528
0.0860349 -2.1684e-19 -0.00225115
0.0703359 0 -0.049653
0.0860328 2.1684e-19 0.00625408
0.0860212 -4.33681e-19 -0.0100616
0.0781563 -1.807e-20 -0.0377922
-0.0702846 4.33681e-19 -0.0511057
0.0156364 -9.03502e-21 -0.0855867
-0.015614 -4.51751e-21 -0.0856965
0.0625211 -9.03502e-21 -0.061632
0.0859776 -4.33681e-19 -0.0185236
-0.0785689 9.03502e-22 -0.0399633
-0.0624832 4.51751e-21 -0.0625616
-0.0859042 -8.67362e-19 -0.0212544
0.0859704 0 -0.0260744
0.00782419 8.67362e-19 -0.0895567
-0.0078004 -8.67362e-19 -0.0896043
[...]
POINT_DATA 18239
FIELD attributes 1
U 3 18239 float
9.82948 0.103323 0.139075
10.2486 0.199084 0.056062
19.5711 0.267358 -0.063797
18.1865 0.276883 -0.134041
15.8438 -0.0619335 0.305829
14.9664 -0.033793 0.23866
12.1056 -0.0473207 0.233671
11.7389 -0.0265056 0.187194
4.90416 0.0745376 0.0968903
20.3533 0.749087 -0.0659295
5.71375 0.14954 0.111831
19.2331 0.686899 -0.130415
5.72439 0.141891 0.09888
0 0 0
0 0 0
0 0 0
10.9894 0.144565 -0.000140136
11.8008 -0.0266453 0.18818
11.8614 -0.0463661 0.228958
10.4473 0.0987232 0.162751
9.04599 0.104141 0.105086
10.9124 0.209405 0.0762015
9.50636 0.188228 0.032594
0 0 0
5.76574 0.142916 0.0995944
21.3421 0.044427 -0.341014
0 0 0
22.0393 0.349811 -0.283202
5.55348 0.145345 0.108694
4.93533 0.0746694 0.0865761
4.75313 0.0716892 0.0961407
0 0 0
0 0 0
11.4321 0.175494 0.0171599
10.4689 0.129268 -0.0156957
11.3797 -0.00722385 0.148194
5.79874 0.1342 0.0843428
5.4726 0.149032 0.104978
12.0588 -0.0719262 0.235043
0 0 0
0 0 0
30.2667 0.308993 -0.332812
20.6798 0.246874 -0.0410513
16.5987 0.282014 -0.155181
14.1381 -0.00897489 0.184115
16.4579 -0.0981653 0.320787
12.8815 -0.0081772 0.167751
21.091 0.79674 -0.026386
17.9009 0.638017 -0.122166
29.9599 0.225218 -0.283256
31.0106 0.244263 -0.0516351
31.1969 0.280773 -0.316229
30.5324 0.451446 -0.438064
20.5703 0.1548 -0.296565
22.4866 0.41868 -0.278879
11.2085 -0.00711518 0.145965
11.4679 -0.0684019 0.223526
31.5428 0.120259 -0.305336
10.8921 0.0903628 0.170169
11.3658 0.217686 0.0846073
0 0 0
8.0776 0.0923881 0.0666078
5.68338 0.13153 0.0826649
0 0 0
8.63385 0.168747 0.0201343
5.10211 0.138943 0.0978714
4.81562 0.067103 0.0638549
11.7308 0.192935 0.0154647
4.3809 0.0624172 0.0836396
0 0 0
31.3965 0.114039 -0.286121
0 0 0
9.80116 0.135156 -0.0143005
31.7135 0.116729 -0.403902
31.9608 -0.0361487 -0.390621
30.8262 0.264639 -0.214107
32.0655 -0.0198985 -0.457917
5.01201 0.13684 0.0993881
5.65507 0.105471 0.0453902
0 0 0
31.4429 0.247457 -0.348197
0 0 0
10.8558 -0.0195871 0.0415357
11.3982 -0.0940911 0.230321
32.1854 -0.0918053 -0.411277
29.8443 0.312392 -0.34811
30.727 0.481603 -0.52875
21.4779 0.232977 0.0290693
15.4028 0.24571 -0.149965
21.0103 0.84179 0.0155024
16.7585 -0.13834 0.338636
13.2777 -0.023957 0.0508022
12.1221 -0.0218719 0.0463808
16.6978 0.56605 -0.0761591
32.1032 -0.0968029 -0.418595
31.8578 -0.0310551 -0.506418
32.2596 -0.0929044 -0.457512
22.5771 0.487082 -0.331706
32.155 -0.0399131 -0.492685
19.7914 0.244457 -0.233555
32.3334 -0.159558 -0.375542
32.394 -0.151461 -0.422593
31.3186 0.133599 -0.409987
31.8334 0.0877484 -0.456167
10.601 -0.0191274 0.0405608
10.7714 -0.0889169 0.217655
32.4171 -0.178172 -0.377733
11.8131 0.216059 0.00215098
0 0 0
5.48444 0.102289 0.0440207
0 0 0
11.0574 0.0822795 0.171039
30.8273 0.298784 -0.345893
4.64051 0.126697 0.0920213
7.88411 0.0854131 0.0344671
11.1373 0.217007 0.0868367
8.20643 0.154098 0.00623397
31.5587 0.204007 -0.455129
32.2739 -0.161421 -0.405691
4.63732 0.0563713 0.0401352
32.3712 -0.181342 -0.372124
3.98246 0.0484574 0.0710596
32.4335 -0.158467 -0.456391
0 0 0
0 0 0
32.4546 -0.178907 -0.409836
9.17852 0.128501 -0.0200455
32.0478 -0.0848658 -0.485317
32.3108 -0.109639 -0.496778
4.56861 0.111497 0.101916
5.43758 0.0851811 0.0290966
0 0 0
32.4558 -0.200389 -0.344435
32.4879 -0.19855 -0.367793
0 0 0
10.4661 -0.114758 0.236795
10.3029 -0.0124192 0.00184979
12.9009 -0.0155508 0.00231623
31.8237 -0.00351439 -0.580167
29.8321 0.349835 -0.382929
30.8158 0.51075 -0.712095
32.2056 -0.0671853 -0.53118
32.4804 -0.209428 -0.341548
23.1476 0.630575 -0.487287
21.2548 0.234266 0.151857
21.6242 1.00363 0.00513706
16.7994 -0.184203 0.380088
14.4431 0.232319 -0.179026
32.4247 -0.201732 -0.363592
11.463 -0.0138175 0.00205807
32.3402 -0.17583 -0.407404
32.5053 -0.204091 -0.391235
31.313 0.1488 -0.469749
15.6656 0.509966 -0.104379
32.4564 -0.209492 -0.339763
32.4772 -0.187939 -0.448197
32.4991 -0.212213 -0.360967
31.9084 0.0399663 -0.583639
32.2494 -0.144647 -0.451978
19.0418 0.226367 -0.246781
32.4576 -0.170831 -0.505953
32.4811 -0.217379 -0.320124
32.4972 -0.219321 -0.333298
12.2456 -0.0147609 0.00219859
11.0981 -0.121689 0.251095
32.0372 -0.0705695 -0.520206
9.96203 -0.0120083 0.00178859
30.8292 0.296305 -0.369237
32.3318 -0.135407 -0.551331
31.6712 0.126044 -0.726294
0 0 0
0 0 0
11.0812 0.0548308 0.128342
4.94176 0.120604 0.110241
32.4859 -0.224872 -0.316065
5.21197 0.0816468 0.0278893
32.4414 -0.206227 -0.36584
11.3633 0.145893 0.0453564
32.4644 -0.21655 -0.330931
32.5082 -0.220584 -0.391297
7.20367 0.0808923 0.00567762
32.5063 -0.224798 -0.35069
7.58117 0.142016 -0.0145946
32.4159 -0.193481 -0.409484
4.27119 0.0330449 0.0541116
0 0 0
4.40697 0.0502213 0.0201837
32.4739 -0.222411 -0.314525
0 0 0
32.5142 -0.215515 -0.437916
32.4955 -0.22944 -0.330347
8.66318 0.119566 -0.0392351
28.9671 0.675453 -0.38389
31.8271 0.0019739 -0.58454
32.2167 -0.109172 -0.623273
5.20731 0.0711097 0.0589771
5.16385 0.0683176 0.00261987
32.3381 -0.166278 -0.441045
0 0 0
0 0 0
11.1311 -0.181009 0.131438
9.63678 -0.00422205 -0.0457569
32.4837 -0.203716 -0.489058
32.4785 -0.228569 -0.300344
32.4867 -0.233125 -0.310125
11.904 -0.00521537 -0.056522
29.7858 0.337142 -0.427917
13.3773 0.224379 -0.199505
13.6884 0.229598 -0.204146
13.9384 0.445121 -0.152262
31.139 0.253895 -0.623505
19.7513 0.106987 0.0745491
32.2618 -0.137007 -0.465919
32.4671 -0.21915 -0.330639
31.3046 0.145561 -0.497855
32.4988 -0.237756 -0.353958
32.4532 -0.192738 -0.544044
32.4608 -0.211351 -0.359691
21.5063 0.0429701 -0.147048
32.4713 -0.226105 -0.306556
32.4799 -0.234366 -0.297706
32.4917 -0.23944 -0.326815
20.4041 0.242098 -0.324878
32.5072 -0.236054 -0.384494
32.0165 -0.0640107 -0.617611
13.1712 0.220923 -0.196432
16.5705 -0.269461 0.195666
10.5754 -0.00463329 -0.0502138
32.4446 -0.200286 -0.396942
15.2528 0.487097 -0.16662
32.4749 -0.230413 -0.296118
32.4842 -0.240147 -0.309662
32.5092 -0.234475 -0.424931
32.0401 -0.0669377 -0.537122
31.154 0.0502616 -0.237887
32.4288 -0.188021 -0.437828
32.3706 -0.185882 -0.563095
32.4758 -0.234874 -0.286677
32.4785 -0.240362 -0.293442
32.5112 -0.233548 -0.467394
12.6697 0.21251 -0.188953
12.9065 0.216482 -0.192484
11.2512 -0.00492936 -0.0534224
11.2432 0.0684294 -0.0473635
30.7968 0.28234 -0.429509
13.1252 0.419153 -0.143379
10.91 0.0356167 -0.0244544
31.8725 -0.074943 -0.553026
9.17498 -0.00401973 -0.0435642
14.9038 0.162559 -0.221766
32.4737 -0.226767 -0.306753
32.4718 -0.22161 -0.325408
0 0 0
32.4844 -0.248302 -0.329527
32.4899 -0.249774 -0.353399
7.52972 0.102824 0.0852803
0 0 0
32.4739 -0.231591 -0.29076
4.86263 0.0643325 0.00246705
32.3497 -0.162034 -0.464732
32.4724 -0.214367 -0.352615
32.4798 -0.247138 -0.307993
32.4756 -0.2402 -0.285457
32.497 -0.250056 -0.380677
31.8145 0.00155329 -0.607947
6.56891 0.075253 -0.0125691
32.4963 -0.231057 -0.501261
6.82757 0.128212 -0.026706
32.3196 -0.201495 -0.564019
4.11228 0.0433017 0.00462899
0 0 0
32.4752 -0.235677 -0.284097
6.32787 0.0402524 -0.0493473
32.4758 -0.24632 -0.295283
8.03996 0.111981 -0.0525171
32.4733 -0.206603 -0.381128
0 0 0
30.1165 0.0816321 -0.335185
32.5043 -0.251299 -0.409308
4.8214 0.0530623 -0.0019325
0 0 0
29.7292 0.330067 -0.477643
8.90459 -0.00436902 -0.0555955
10.9629 -0.00537894 -0.0684466
12.1704 0.201636 -0.181328
32.2688 -0.134966 -0.491709
7.78393 0.13014 -0.31785
12.4058 0.205535 -0.184835
12.6067 0.392832 -0.14555
32.4746 -0.240016 -0.278273
32.4735 -0.245284 -0.283306
20.9034 0.0844556 -0.240964
31.5556 -0.0152747 -0.51127
23.038 0.0755137 -0.330624
32.4585 -0.196605 -0.420773
13.3049 -0.217096 -0.368848
0 0 0
32.4973 -0.239099 -0.519953
14.6372 0.456101 -0.168992
32.5125 -0.252872 -0.444825
32.4779 -0.227272 -0.304245
14.4972 0.164384 -0.228273
20.3055 -0.465318 -0.491446
32.4779 -0.231671 -0.291395
32.4763 -0.256392 -0.329656
31.2884 0.141925 -0.540709
32.4733 -0.254113 -0.312016
32.4809 -0.222323 -0.323413
32.4812 -0.258953 -0.352012
32.162 -0.159698 -0.629798
32.4765 -0.235974 -0.280592
32.4713 -0.252239 -0.29625
32.4838 -0.216975 -0.344331
32.4724 -0.244029 -0.27693
32.4866 -0.262338 -0.375187
11.9498 0.197981 -0.178042
32.4423 -0.186321 -0.464478
9.74712 -0.00478241 -0.0608558
13.3552 0.416154 -0.154191
32.0376 -0.0641363 -0.568358
32.5243 -0.257356 -0.473135
32.4755 -0.239365 -0.275471
32.4694 -0.249995 -0.285309
32.4871 -0.210527 -0.371812
28.8631 0.375925 -0.510825
32.4465 -0.239597 -0.601075
32.4972 -0.26488 -0.403816
31.2019 0.0848255 -0.52658
30.784 0.278196 -0.478081
32.4728 -0.242901 -0.270858
32.469 -0.247782 -0.275213
32.4831 -0.231606 -0.28994
32.3595 -0.159522 -0.495301
11.5272 0.190979 -0.171745
11.6638 0.193242 -0.17378
32.4867 -0.227387 -0.303922
32.466 -0.260454 -0.314036
32.0309 -0.119923 -0.70661
10.3704 -0.0050882 -0.064747
14.0271 0.437091 -0.161949
32.4899 -0.203936 -0.399992
11.8384 0.36889 -0.136679
32.4685 -0.263423 -0.331554
32.4811 -0.235056 -0.280376
32.4644 -0.257307 -0.299549
32.5269 -0.263572 -0.53891
10.7204 -0.174925 -0.2972
13.8529 0.157079 -0.218129
32.5102 -0.268287 -0.429109
32.4901 -0.22297 -0.319687
8.49077 -0.00416598 -0.0530119
32.472 -0.266931 -0.349614
31.803 0.00744974 -0.64597
32.478 -0.238438 -0.272109
0 0 0
32.4638 -0.254546 -0.286393
0 0 0
4.55513 0.0501319 -0.00182577
5.90992 0.0988084 -0.241326
32.417 -0.239527 -0.675839
32.4688 -0.246154 -0.270197
27.3818 -0.0591474 -0.69636
32.4959 -0.218436 -0.34006
6.02101 0.0685464 -0.0214474
27.9165 0.180218 -0.694757
6.1609 0.114892 -0.0293212
32.4786 -0.271492 -0.375611
3.85039 0.0366855 -0.00541459
0 0 0
32.4746 -0.241525 -0.268518
32.4736 -0.194338 -0.445898
7.43387 0.10579 -0.0557284
32.4631 -0.251798 -0.277442
30.3662 0.103679 -0.698872
4.58595 0.0548325 -0.109186
0 0 0
32.2745 -0.130987 -0.529373
32.5222 -0.276349 -0.485968
4.49226 0.0389336 -0.01833
32.5015 -0.213737 -0.361923
0 0 0
32.5429 -0.269277 -0.612304
29.6194 0.343684 -0.507258
32.4875 -0.277079 -0.401455
8.2494 -0.000232787 -0.0724375
5.60379 0.0829513 -0.183221
10.1061 -0.000285182 -0.0887415
11.0958 0.182281 -0.165732
11.2307 0.184497 -0.167747
11.3689 0.349049 -0.131323
31.6905 -0.0525433 -0.773111
9.07452 0.150619 -0.22427
0 0 0
32.4915 -0.230864 -0.289641
32.4868 -0.234081 -0.278835
32.4698 -0.244581 -0.265381
32.4637 -0.249273 -0.269306
32.4578 -0.265604 -0.316783
32.4567 -0.261875 -0.301447
32.4958 -0.227472 -0.301812
13.5408 0.415731 -0.156411
13.459 0.167464 -0.218549
31.2479 0.150702 -0.578623
32.46 -0.269725 -0.332804
32.4828 -0.23712 -0.27179
32.4559 -0.258538 -0.289668
32.4552 -0.184149 -0.496591
32.2493 -0.205559 -0.793402
32.5052 -0.207795 -0.391608
32.5019 -0.223593 -0.317374
32.4633 -0.274107 -0.354042
32.5436 -0.288069 -0.55022
32.4779 -0.240105 -0.265703
32.4971 -0.28276 -0.443553
32.456 -0.255515 -0.27882
32.0328 -0.0550407 -0.603906
32.4641 -0.246851 -0.264995
10.8155 0.177676 -0.161545
32.5079 -0.21963 -0.33435
8.98377 -0.00025351 -0.0788861
28.6226 0.450018 -1.12371
32.4828 -0.271584 -0.711566
12.134 0.372538 -0.14016
26.7277 0.281232 -1.16694
32.4684 -0.279354 -0.376038
32.4721 -0.242408 -0.263017
30.1414 0.188294 -0.987295
32.456 -0.252178 -0.271517
28.6371 0.410397 -0.522413
32.5075 -0.201563 -0.42285
31.4611 0.0117748 -0.897432
32.5108 -0.291207 -0.491263
32.3707 -0.15412 -0.531422
32.4946 -0.233067 -0.278623
32.5151 -0.215487 -0.356946
32.4474 -0.265979 -0.304896
32.5003 -0.230179 -0.287969
30.6669 0.296375 -0.516426
32.5351 -0.289828 -0.624074
32.4884 -0.235787 -0.270501
32.4472 -0.262147 -0.291979
32.4486 -0.270267 -0.318784
32.4732 -0.285828 -0.411879
32.4654 -0.244546 -0.261585
32.4574 -0.248963 -0.263704
32.1091 -0.183507 -0.956031
32.507 -0.22719 -0.300251
32.4823 -0.238137 -0.265324
32.447 -0.258239 -0.281944
32.45 -0.274938 -0.337638
10.5975 0.174094 -0.158289
12.8628 0.394915 -0.148579
9.64639 -0.000272208 -0.0847044
10.3066 0.169315 -0.153944
10.4156 0.31978 -0.120311
31.7802 0.0246159 -0.671386
12.7497 0.158638 -0.207031
9.33266 0.154904 -0.230649
7.70169 -0.000217331 -0.0676282
32.5136 -0.224085 -0.313665
0 0 0
32.4754 -0.240361 -0.259397
32.447 -0.254923 -0.27423
32.4376 -0.280499 -0.83851
32.4528 -0.280283 -0.357623
32.4917 -0.190767 -0.474574
32.5219 -0.211163 -0.381818
5.78361 0.0856131 -0.1891
0 0 0
4.14576 0.0359305 -0.0169162
32.5162 -0.299106 -0.555074
32.48 -0.294197 -0.452207
32.5161 -0.299399 -0.555954
27.0841 0.404503 -1.18107
32.5139 -0.299484 -0.551911
32.4583 -0.248804 -0.258426
5.60509 0.0677852 -0.0271882
5.41146 0.102813 -0.0271788
32.2826 -0.12127 -0.570342
28.4851 0.346626 -1.16882
3.51722 0.0343626 -0.0135904
4.69721 0.0774427 -0.13974
0 0 0
0 0 0
32.5214 -0.220594 -0.330891
6.82311 0.104906 -0.0491857
32.4682 -0.244872 -0.256416
32.4482 -0.254488 -0.264531
32.4542 -0.285819 -0.385825
32.533 -0.297657 -0.720857
30.391 0.0924083 -1.03479
4.10154 0.0380994 -0.0230988
32.4953 -0.234317 -0.270151
32.5026 -0.232158 -0.277183
0 0 0
29.5375 0.37984 -0.524614
32.4367 -0.264975 -0.295553
32.4373 -0.269571 -0.307345
5.93567 0.0690349 -0.23589
7.47244 0.0140088 -0.0729598
32.5269 -0.204785 -0.414275
32.4875 -0.236257 -0.265698
9.10572 0.202301 -0.331673
9.95401 0.170085 -0.149599
10.2411 0.174991 -0.153914
9.39029 0.0176042 -0.0916854
10.0563 0.30678 -0.097544
32.4376 -0.260337 -0.282737
32.5104 -0.229572 -0.28688
0 0 0
31.7516 -0.111515 -1.00838
32.4374 -0.27422 -0.323783
32.4828 -0.301328 -0.501444
32.4731 -0.1785 -0.530219
32.529 -0.217023 -0.349768
12.4805 0.380735 -0.121059
31.2341 0.163633 -0.654749
32.4804 -0.240149 -0.257418
12.5712 0.203346 -0.142397
32.4568 -0.292529 -0.417681
32.4374 -0.259379 -0.273292
32.5182 -0.226914 -0.297563
32.5224 -0.309736 -0.629987
32.4387 -0.279407 -0.341286
32.2559 -0.249724 -0.957873
32.4618 -0.247941 -0.25024
32.4466 -0.255132 -0.255353
32.0253 -0.0372711 -0.665143
32.5265 -0.224236 -0.311061
32.4382 -0.284933 -0.365139
32.4697 -0.245941 -0.249549
32.4395 -0.257637 -0.25978
32.4642 -0.302953 -0.827836
32.5381 -0.212792 -0.375271
32.5312 -0.197586 -0.448927
32.4506 -0.251253 -0.247862
26.3366 0.537574 -1.51481
9.63303 0.164601 -0.144775
28.4844 0.543265 -1.47741
8.10633 0.0151971 -0.079149
32.4878 -0.30859 -0.55222
11.0546 0.337234 -0.107227
32.4553 -0.300955 -0.460471
30.0506 0.201852 -1.20495
32.4621 -0.247822 -0.245252
32.4381 -0.256915 -0.252412
32.5349 -0.221445 -0.325816
28.5667 0.510108 -0.420764
32.3832 -0.144014 -0.576493
32.5025 -0.233029 -0.267231
32.4248 -0.267816 -0.300141
32.4942 -0.236782 -0.261172
32.4387 -0.291027 -0.391874
32.4256 -0.266243 -0.285723
32.5116 -0.231041 -0.276385
32.4249 -0.272269 -0.312219
31.3919 -0.0375158 -1.08997
32.5054 -0.315147 -0.713475
30.7766 0.287593 -0.640299
32.5206 -0.228978 -0.284811
32.458 -0.243561 -0.243058
32.4421 -0.249796 -0.244711
32.4251 -0.277595 -0.327686
32.0755 -0.223949 -1.09596
32.5471 -0.208101 -0.403664
32.4764 -0.242984 -0.245954
32.4261 -0.2611 -0.260471
32.4669 -0.242575 -0.239353
32.4335 -0.251668 -0.252097
32.4575 -0.308699 -0.50132
32.5445 -0.21811 -0.344897
32.4883 -0.239259 -0.251605
32.5299 -0.226745 -0.295406
32.4221 -0.265783 -0.272942
32.5143 -0.184986 -0.506941
12.2228 0.372873 -0.118559
32.4237 -0.282966 -0.347426
31.7619 0.0527501 -0.784716
10.1277 0.225006 -0.368897
32.4368 -0.297479 -0.423331
0 0 0
9.34011 0.159595 -0.140373
8.55838 0.0160446 -0.0835628
12.3015 0.198984 -0.139343
32.4843 -0.318846 -0.622487
8.94427 0.152832 -0.134424
9.01898 0.275136 -0.0874824
32.398 -0.312108 -0.950271
6.68754 0.0777797 -0.265771
6.77351 0.0126985 -0.0661356
32.5393 -0.2244 -0.307217
0 0 0
3.66652 0.0340585 -0.0206489
32.4229 -0.288968 -0.36972
32.2861 -0.104703 -0.635096
26.7082 0.645148 -1.54444
5.33652 0.102189 -0.19922
32.4457 -0.246476 -0.239989
0 0 0
4.92921 0.0661357 -0.0269
4.67171 0.0905358 -0.0250983
32.4873 -0.322398 -0.805826
28.3859 0.407021 -1.48338
6.56797 0.126929 -0.0477542
32.5543 -0.214519 -0.365918
3.10897 0.0385033 -0.0146626
32.5539 -0.200984 -0.43887
0 0 0
32.4991 -0.238103 -0.253675
32.5115 -0.232995 -0.265063
32.4136 -0.268559 -0.280749
32.4587 -0.243545 -0.237299
32.4326 -0.251301 -0.244184
32.4118 -0.271756 -0.300099
32.4348 -0.30453 -0.457909
32.491 -0.240278 -0.247965
32.4119 -0.267698 -0.270554
32.4538 -0.316551 -0.552818
30.285 0.0682751 -1.26143
32.5207 -0.229967 -0.276327
32.4864 -0.236776 -0.244152
32.4125 -0.274074 -0.31369
32.416 -0.258961 -0.259795
3.61609 0.0513299 -0.0234595
32.5495 -0.221933 -0.321896
0 0 0
6.91749 0.0943656 -0.29023
28.9045 0.711449 -0.876801
32.4198 -0.294975 -0.396535
9.83778 0.297422 -0.374365
32.4939 -0.169964 -0.570933
6.53737 0.0232622 -0.0619019
8.66325 0.150496 -0.164337
8.28866 0.029494 -0.0784848
9.05262 0.15726 -0.171723
8.99895 0.2707 -0.0972236
31.6952 -0.160498 -1.16726
0 0 0
32.5312 -0.228387 -0.282817
32.4789 -0.331148 -0.698954
32.4097 -0.279943 -0.33262
12.2059 0.367168 -0.131871
31.073 0.267626 -0.912688
32.4738 -0.239454 -0.237375
32.4188 -0.254962 -0.251438
12.8107 0.53687 -0.235293
32.2043 -0.285854 -1.06952
32.4206 -0.304443 -0.445502
32.566 -0.210034 -0.393865
32.5416 -0.226632 -0.292046
32.4083 -0.285865 -0.350983
32.4291 -0.313233 -0.501208
32.5599 -0.219277 -0.33813
32.4973 -0.23681 -0.242385
32.4063 -0.261367 -0.272031
32.5595 -0.192658 -0.477908
32.4167 -0.301798 -0.425815
32.0421 -0.00147303 -0.765038
32.4481 -0.326037 -0.609415
32.4088 -0.330159 -0.914737
26.0461 0.927287 -1.8136
32.5527 -0.224651 -0.303645
32.4044 -0.29174 -0.37389
32.5091 -0.236209 -0.251403
32.3977 -0.272216 -0.284322
28.412 0.678778 -1.89084
8.44956 0.146784 -0.160283
6.98478 0.0248543 -0.0661384
32.4215 -0.126348 -0.643503
10.6027 0.318943 -0.11455
32.4891 -0.237207 -0.238708
32.4046 -0.260698 -0.260529
29.9958 0.202101 -1.51916
32.4534 -0.242341 -0.23088
32.4249 -0.249995 -0.237455
32.4525 -0.336833 -0.781187
32.572 -0.215964 -0.358501
32.5307 -0.230589 -0.270521
32.578 -0.204895 -0.425122
32.3958 -0.279379 -0.318246
32.41 -0.30898 -0.459909
31.3198 -0.0974764 -1.28841
32.4218 -0.32293 -0.548528
9.46344 0.286104 -0.36012
32.564 -0.222518 -0.316447
0 0 0
32.5235 -0.231869 -0.258535
32.4008 -0.298088 -0.398703
6.6295 0.090437 -0.278147
32.3918 -0.277109 -0.30125
32.5416 -0.227944 -0.278103
32.4008 -0.302379 -0.41921
32.3931 -0.282225 -0.338108
32.553 -0.176503 -0.548694
32.013 -0.26622 -1.20689
32.4363 -0.336716 -0.677805
20.8582 0.94779 -0.579064
31.7744 0.120616 -0.903559
5.07991 0.102178 -0.241891
12.2997 0.36999 -0.132884
32.3257 -0.342368 -1.03761
32.5536 -0.226501 -0.28891
12.9082 0.540956 -0.237084
32.39 -0.287694 -0.354828
32.5846 -0.212276 -0.380832
8.17615 0.142034 -0.155097
7.48034 0.0266177 -0.0708309
7.86739 0.136671 -0.14924
8.16904 0.245735 -0.0882573
21.9588 0.483458 -0.717197
32.5763 -0.220175 -0.332062
32.4022 -0.316795 -0.497128
32.394 -0.305075 -0.427455
32.3577 -0.0729913 -0.734964
5.38119 0.0191482 -0.0509542
32.5911 -0.196563 -0.465541
32.5076 -0.233724 -0.240631
32.3883 -0.264796 -0.272788
0 0 0
0 0 0
32.4231 -0.344784 -0.871314
32.4113 -0.331108 -0.598783
32.5218 -0.231014 -0.250443
2.91342 0.0413556 -0.0189009
9.03196 0.111093 -0.553094
32.3855 -0.269402 -0.28662
7.27472 0.135956 -0.528411
26.574 0.631459 -1.78929
32.432 -0.245492 -0.221307
32.5658 -0.225005 -0.29889
32.5283 -0.234246 -0.254771
32.4856 -0.235891 -0.230784
4.30803 0.0630005 -0.0229189
32.3949 -0.258863 -0.251932
4.14375 0.0814254 -0.0289174
32.3799 -0.279493 -0.298915
28.3215 0.384488 -1.66454
32.3858 -0.294027 -0.376139
6.64311 0.145608 -0.0648174
2.46198 0.0372846 -0.0100218
0 0 0
32.5376 -0.231744 -0.260776
32.38 -0.279885 -0.311864
30.2019 0.0304901 -1.3984
32.5518 -0.155787 -0.632847
2.86698 0.0444022 -0.0154956
32.3835 -0.298933 -0.395793
0 0 0
32.4207 -0.349452 -0.751472
5.1711 0.0237182 -0.0401496
32.5892 -0.217619 -0.349169
7.62924 0.136253 -0.147127
7.21782 0.0331058 -0.0560408
7.93232 0.141666 -0.152972
7.98029 0.22828 -0.158536
31.6261 -0.203559 -1.26047
32.601 -0.207487 -0.411375
32.3863 -0.312804 -0.458785
32.3911 -0.325669 -0.539709
32.5787 -0.223146 -0.311046
32.5535 -0.228312 -0.273937
30.9646 0.344708 -1.00165
32.4634 -0.238722 -0.218093
32.4008 -0.253554 -0.230965
32.3752 -0.284934 -0.33632
32.3793 -0.300371 -0.400168
12.0598 0.344977 -0.23958
0 0 0