# Forces     
# CofR       : (0.000000e+00 0.000000e+00 0.000000e+00)
# Time       forces(pressure viscous porous) moment(pressure viscous porous)
1.000000e+03	((5.574376e+00 -3.370279e+00 -5.707828e+00) (5.632384e+00 5.021386e-02 -8.457548e-03) (0.000000e+00 0.000000e+00 0.000000e+00)) ((7.602372e-01 2.388067e+01 1.002067e+01) (-1.041461e-02 1.581400e+00 -6.641978e-02) (0.000000e+00 0.000000e+00 0.000000e+00))
