# vtk DataFile Version 2.0
track0
ASCII
DATASET POLYDATA
POINTS 996 float
-1.001 -0.05 0.0011
-1.00075 -0.0499924 0.00106851
-1.00051 -0.0499849 0.00103703
-1.00026 -0.0499773 0.00100556
-1.00001 -0.0499697 0.000974104
-0.999764 -0.0499621 0.000942726
-0.999425 -0.0499516 0.000899841
-0.999086 -0.0499411 0.000856839
-0.998747 -0.0499305 0.000813916
-0.998408 -0.0499199 0.000771072
-0.998069 -0.0499093 0.000728296
-0.995314 -0.0498228 0.000381576
-0.992559 -0.0497353 3.9313e-05
-0.989803 -0.0496467 -0.000298525
-0.987046 -0.049557 -0.000631971
-0.984295 -0.0494663 -0.000960446
-0.981186 -0.0493607 -0.00133049
-0.978076 -0.049258 -0.00169736
-0.974966 -0.0491543 -0.00206066
-0.971855 -0.0490496 -0.00242034
-0.968748 -0.048944 -0.00277594
-0.965631 -0.0488393 -0.00312913
-0.962514 -0.0487332 -0.00348276
-0.959397 -0.0486268 -0.00383761
-0.95628 -0.0485201 -0.00419354
-0.953162 -0.0484131 -0.0045496
-0.949918 -0.0482997 -0.00492083
-0.946674 -0.0481902 -0.0052938
-0.943429 -0.0480808 -0.0056653
-0.940185 -0.0479716 -0.00603533
-0.93694 -0.0478631 -0.00640221
-0.934397 -0.047774 -0.00667806
-0.931855 -0.0476902 -0.0069586
-0.929312 -0.0476066 -0.00723718
-0.92677 -0.0475232 -0.00751395
-0.924295 -0.047442 -0.00778059
-0.923806 -0.047426 -0.00783262
-0.923317 -0.04741 -0.00788454
-0.922829 -0.0473939 -0.00793633
-0.92234 -0.0473779 -0.00798801
-0.921851 -0.0473619 -0.00803955
-0.918724 -0.0472599 -0.00836923
-0.915597 -0.0471593 -0.00869599
-0.912469 -0.0470605 -0.0090205
-0.909341 -0.0469636 -0.00934278
-0.906216 -0.0468686 -0.00966251
-0.905223 -0.0468387 -0.00976325
-0.904231 -0.0468089 -0.00986392
-0.903238 -0.0467792 -0.00996442
-0.902245 -0.0467495 -0.0100648
-0.901249 -0.0467198 -0.0101653
-0.89881 -0.0466469 -0.0104109
-0.896372 -0.0465735 -0.0106521
-0.893932 -0.0464992 -0.0108884
-0.891493 -0.0464242 -0.0111192
-0.889038 -0.0463476 -0.0113448
-0.886177 -0.0462633 -0.0115996
-0.883318 -0.0461749 -0.0118695
-0.880458 -0.0460898 -0.0121378
-0.877599 -0.0460048 -0.012406
-0.874738 -0.0459199 -0.0126742
-0.871645 -0.0458363 -0.0129483
-0.868553 -0.0457465 -0.0132326
-0.865461 -0.0456585 -0.0135133
-0.862369 -0.0455722 -0.0137908
-0.859275 -0.0454874 -0.0140652
-0.856183 -0.045417 -0.0143325
-0.853092 -0.045336 -0.0146025
-0.85 -0.0452587 -0.0148697
-0.846908 -0.045185 -0.0151342
-0.843816 -0.0451152 -0.0153948
-0.841716 -0.0450747 -0.0155604
-0.839617 -0.0450331 -0.0157328
-0.837518 -0.0449942 -0.0159029
-0.835418 -0.0449581 -0.0160708
-0.833535 -0.0449282 -0.0162193
-0.832469 -0.0449125 -0.0163025
-0.831403 -0.0448971 -0.0163854
-0.830336 -0.0448821 -0.0164682
-0.82927 -0.0448674 -0.0165509
-0.828203 -0.044853 -0.0166335
-0.824769 -0.0448106 -0.0168994
-0.821333 -0.0447633 -0.0171605
-0.817897 -0.044714 -0.0174129
-0.814461 -0.0446623 -0.017655
-0.811005 -0.0446072 -0.0178854
-0.808124 -0.0445785 -0.018076
-0.805245 -0.0445512 -0.0182929
-0.802366 -0.0445264 -0.0185105
-0.799487 -0.044507 -0.0187261
-0.796607 -0.0444926 -0.0189401
-0.793496 -0.0444862 -0.0191394
-0.790388 -0.0444848 -0.0193639
-0.787278 -0.0444867 -0.0195825
-0.784169 -0.0444918 -0.0197954
-0.781059 -0.0444985 -0.0200053
-0.777967 -0.0445152 -0.0201914
-0.774876 -0.0445307 -0.0203909
-0.771784 -0.0445481 -0.0205856
-0.768692 -0.0445681 -0.0207738
-0.765599 -0.0445905 -0.0209557
-0.762479 -0.044614 -0.0211146
-0.759361 -0.0446469 -0.021287
-0.756242 -0.0446822 -0.0214528
-0.753123 -0.0447198 -0.0216122
-0.750003 -0.0447597 -0.0217653
-0.746878 -0.0447995 -0.0218979
-0.743754 -0.0448442 -0.0220413
-0.740629 -0.0448908 -0.0221784
-0.737504 -0.0449395 -0.0223093
-0.734379 -0.0449901 -0.0224341
-0.731254 -0.0450384 -0.0225397
-0.72813 -0.0450942 -0.0226539
-0.725006 -0.0451509 -0.0227633
-0.721881 -0.0452086 -0.0228678
-0.718756 -0.0452673 -0.0229677
-0.715631 -0.0453227 -0.0230519
-0.712506 -0.0453823 -0.0231422
-0.709382 -0.0454416 -0.023228
-0.706257 -0.0455004 -0.0233093
-0.703131 -0.045559 -0.0233862
-0.700006 -0.0456141 -0.0234528
-0.696881 -0.0456714 -0.0235211
-0.693756 -0.045728 -0.0235857
-0.690631 -0.045784 -0.0236466
-0.687507 -0.0458394 -0.0237039
-0.684866 -0.0458848 -0.0237471
-0.682226 -0.0459308 -0.0237904
-0.679585 -0.0459766 -0.0238322
-0.676945 -0.0460222 -0.0238722
-0.67356 -0.0460805 -0.0239214
-0.673225 -0.0460862 -0.0239261
-0.672889 -0.046092 -0.0239307
-0.672553 -0.0460978 -0.0239352
-0.672217 -0.0461035 -0.0239398
-0.671881 -0.0461093 -0.0239443
-0.668755 -0.0461628 -0.0239863
-0.66563 -0.0462164 -0.0240264
-0.662505 -0.0462701 -0.0240649
-0.65938 -0.046324 -0.0241021
-0.656255 -0.0463781 -0.0241383
-0.655216 -0.0463962 -0.0241503
-0.654177 -0.0464143 -0.024162
-0.653139 -0.0464325 -0.0241737
-0.6521 -0.0464507 -0.0241854
-0.651085 -0.0464686 -0.0241968
-0.648994 -0.0465056 -0.0242201
-0.646903 -0.0465429 -0.0242431
-0.644811 -0.0465803 -0.0242658
-0.64272 -0.046618 -0.0242881
-0.640628 -0.046656 -0.0243101
-0.637503 -0.0467129 -0.0243429
-0.634378 -0.0467709 -0.024375
-0.631253 -0.0468297 -0.024407
-0.628128 -0.0468895 -0.0244387
-0.625003 -0.0469502 -0.0244702
-0.621877 -0.0470117 -0.0245031
-0.618752 -0.0470742 -0.0245347
-0.615627 -0.0471375 -0.0245661
-0.612502 -0.0472017 -0.0245975
-0.609377 -0.0472667 -0.0246289
-0.606252 -0.0473322 -0.0246619
-0.603126 -0.0473986 -0.024693
-0.600001 -0.0474656 -0.0247238
-0.596876 -0.0475332 -0.0247542
-0.593751 -0.0476014 -0.0247842
-0.590626 -0.0476702 -0.0248165
-0.5875 -0.0477394 -0.0248459
-0.584375 -0.0478091 -0.0248748
-0.581249 -0.0478792 -0.0249032
-0.578124 -0.0479499 -0.0249311
-0.574999 -0.0480207 -0.0249609
-0.571873 -0.0480923 -0.0249881
-0.568748 -0.0481644 -0.025015
-0.565622 -0.0482371 -0.0250414
-0.562497 -0.0483103 -0.0250673
-0.559371 -0.0483842 -0.0250959
-0.556245 -0.0484584 -0.0251213
-0.55312 -0.0485325 -0.0251461
-0.549994 -0.0486066 -0.0251702
-0.546868 -0.0486807 -0.0251937
-0.543742 -0.0487548 -0.0252188
-0.540616 -0.0488299 -0.0252418
-0.537489 -0.0489062 -0.0252648
-0.534363 -0.0489836 -0.0252877
-0.531237 -0.0490622 -0.0253104
-0.52811 -0.0491421 -0.0253359
-0.524984 -0.0492236 -0.0253596
-0.521858 -0.0493082 -0.0253842
-0.518731 -0.0493961 -0.0254097
-0.515604 -0.0494872 -0.025436
-0.512478 -0.0495802 -0.0254643
-0.509352 -0.0496751 -0.0254914
-0.506225 -0.0497705 -0.0255183
-0.503099 -0.0498666 -0.025545
-0.499973 -0.0499632 -0.0255714
-0.496847 -0.0500605 -0.0255998
-0.493721 -0.0501569 -0.0256253
-0.490594 -0.0502512 -0.0256494
-0.487468 -0.0503434 -0.025672
-0.484343 -0.0504335 -0.0256931
-0.481217 -0.0505233 -0.0257136
-0.478092 -0.0506126 -0.0257329
-0.474967 -0.0507008 -0.0257511
-0.471842 -0.0507877 -0.0257683
-0.468717 -0.0508736 -0.0257846
-0.465593 -0.0509577 -0.0258018
-0.462469 -0.0510438 -0.0258165
-0.459346 -0.05113 -0.0258303
-0.456222 -0.0512158 -0.0258434
-0.453098 -0.0513013 -0.0258562
-0.449974 -0.0513867 -0.0258692
-0.44685 -0.0514734 -0.0258803
-0.443726 -0.0515601 -0.0258906
-0.440602 -0.0516464 -0.0259005
-0.437478 -0.0517315 -0.0259109
-0.434355 -0.0518127 -0.0259238
-0.431232 -0.0518979 -0.025934
-0.428109 -0.0519839 -0.0259434
-0.424986 -0.0520692 -0.0259526
-0.421863 -0.0521538 -0.0259618
-0.41874 -0.0522368 -0.0259721
-0.415616 -0.0523215 -0.0259809
-0.412493 -0.0524064 -0.025989
-0.409369 -0.0524908 -0.0259968
-0.406245 -0.0525738 -0.0260048
-0.403122 -0.0526518 -0.0260146
-0.399999 -0.052735 -0.0260212
-0.396876 -0.0528194 -0.0260266
-0.393753 -0.0529033 -0.0260317
-0.39063 -0.0529864 -0.0260367
-0.387506 -0.0530668 -0.0260429
-0.384383 -0.0531501 -0.026047
-0.381259 -0.0532337 -0.0260504
-0.378136 -0.053317 -0.0260536
-0.375012 -0.0533991 -0.0260568
-0.371888 -0.053475 -0.0260625
-0.368765 -0.0535576 -0.0260652
-0.365642 -0.0536412 -0.0260671
-0.362519 -0.0537246 -0.0260686
-0.359395 -0.0538072 -0.02607
-0.356271 -0.0538863 -0.0260725
-0.353147 -0.0539691 -0.0260733
-0.350023 -0.054052 -0.0260735
-0.346899 -0.0541348 -0.0260735
-0.343775 -0.0542166 -0.0260735
-0.340652 -0.0542912 -0.0260759
-0.337528 -0.0543731 -0.0260759
-0.334405 -0.0544556 -0.0260755
-0.331281 -0.054538 -0.0260749
-0.328157 -0.0546199 -0.0260744
-0.325033 -0.0546979 -0.0260749
-0.321909 -0.0547801 -0.0260744
-0.318785 -0.0548623 -0.026074
-0.315661 -0.0549445 -0.0260736
-0.312536 -0.0550265 -0.0260732
-0.309412 -0.0551008 -0.026075
-0.306288 -0.0551829 -0.0260759
-0.303164 -0.0552647 -0.0260766
-0.30004 -0.0553463 -0.0260771
-0.296915 -0.0554279 -0.0260774
-0.29379 -0.0555052 -0.0260772
-0.290665 -0.0555867 -0.0260759
-0.28754 -0.0556682 -0.0260742
-0.284415 -0.0557492 -0.0260721
-0.28129 -0.0558299 -0.0260696
-0.278164 -0.0559036 -0.0260683
-0.275038 -0.0559838 -0.0260657
-0.271911 -0.0560632 -0.0260627
-0.268785 -0.0561417 -0.0260592
-0.265659 -0.0562201 -0.0260553
-0.262528 -0.0562949 -0.0260509
-0.259398 -0.0563737 -0.0260438
-0.256267 -0.0564538 -0.0260351
-0.253137 -0.0565341 -0.0260218
-0.250006 -0.0566148 -0.0260037
-0.247107 -0.0566879 -0.0259846
-0.244208 -0.0567641 -0.0259649
-0.241309 -0.0568402 -0.0259446
-0.238411 -0.0569165 -0.0259239
-0.235731 -0.0569869 -0.0259047
-0.235465 -0.0569938 -0.0259029
-0.2352 -0.0570008 -0.0259011
-0.234934 -0.0570077 -0.0258993
-0.234669 -0.0570147 -0.0258975
-0.234403 -0.0570217 -0.0258957
-0.23128 -0.0571034 -0.0258746
-0.228156 -0.0571827 -0.0258553
-0.225032 -0.05726 -0.0258404
-0.221908 -0.057336 -0.025833
-0.218786 -0.0574106 -0.025833
-0.215661 -0.0574812 -0.0258389
-0.212537 -0.0575504 -0.0258491
-0.209412 -0.0576171 -0.0258636
-0.206288 -0.0576812 -0.0258824
-0.203163 -0.0577426 -0.0259037
-0.200038 -0.0578002 -0.0259246
-0.196913 -0.0578558 -0.0259465
-0.193788 -0.0579093 -0.0259704
-0.190663 -0.0579608 -0.0259977
-0.187538 -0.0580103 -0.0260284
-0.184407 -0.0580573 -0.0260615
-0.181276 -0.0581031 -0.026095
-0.178146 -0.0581483 -0.0261283
-0.175015 -0.0581928 -0.0261614
-0.171884 -0.0582366 -0.0261943
-0.168757 -0.0582813 -0.026227
-0.16563 -0.0583265 -0.0262582
-0.162502 -0.0583719 -0.0262869
-0.159375 -0.0584173 -0.0263121
-0.156248 -0.0584628 -0.0263339
-0.153122 -0.0585074 -0.0263525
[...]
POINT_DATA 996
 FIELD attributes 1
U 3 996 float
30.6297 	0.936874 	-3.90286 30.6325 	0.938218 	-3.90188 30.6353 	0.939563 	-3.9009 30.6381 	0.940908 	-3.89992 30.4166 	0.937769 	-3.86084 30.1169 	0.933065 	-3.80849 30.6498 	0.950012 	-3.88676 30.6522 	0.953153 	-3.87977 30.6545 	0.956294 	-3.87279 30.6569 	0.959435 	-3.86582 30.6593 	0.962576 	-3.85886 30.6815 	0.974884 	-3.81129 30.7035 	0.987332 	-3.76402 30.7252 	0.99992 	-3.71703 30.7466 	1.01265 	-3.67032 30.7409 	1.04479 	-3.65849 30.7637 	1.01612 	-3.62934 30.7645 	1.02567 	-3.59353 30.7635 	1.03535 	-3.55731 30.7624 	1.04519 	-3.52124 30.7625 	1.03336 	-3.4855 30.7859 	1.04802 	-3.4925 30.7618 	1.04999 	-3.502 30.7422 	1.05214 	-3.51056 30.7573 	1.05579 	-3.51231 30.7322 	1.07392 	-3.51659 30.7691 	1.03896 	-3.53741 30.7966 	1.0381 	-3.52637 30.824 	1.03727 	-3.51543 30.0635 	1.00521 	-3.39881 26.9584 	0.945408 	-2.92484 28.7781 	0.948585 	-3.17571 29.731 	0.977473 	-3.25782 30.6764 	1.00611 	-3.33912 31.0028 	1.0167 	-3.34013 31.0273 	1.01844 	-3.30322 31.0315 	1.01822 	-3.29599 31.0357 	1.018 	-3.28878 31.0399 	1.01778 	-3.28157 31.0441 	1.01756 	-3.27438 31.0465 	1.01251 	-3.27318 31.0616 	0.999336 	-3.24539 31.0689 	0.981211 	-3.2235 31.0762 	0.96303 	-3.20176 31.0834 	0.944792 	-3.18019 31.0999 	0.937238 	-3.1564 31.1046 	0.931746 	-3.15439 31.1105 	0.931109 	-3.14978 31.1165 	0.930473 	-3.1452 31.1224 	0.929838 	-3.14062 31.0457 	0.927262 	-3.12617 29.2734 	0.8819 	-2.89536 27.491 	0.836415 	-2.66356 25.6972 	0.790794 	-2.43062 23.8904 	0.74502 	-2.19639 22.8974 	0.67529 	-2.03905 23.3287 	0.720634 	-2.20215 23.1572 	0.689197 	-2.17272 23.9852 	0.712894 	-2.24946 24.8127 	0.736566 	-2.32614 23.5672 	0.63734 	-2.08845 26.5174 	0.769766 	-2.43825 27.3637 	0.778772 	-2.48469 28.1959 	0.78727 	-2.52979 29.0148 	0.795289 	-2.57362 26.8103 	0.610012 	-2.31799 29.6751 	0.777538 	-2.59144 30.3579 	0.759045 	-2.62343 31.0224 	0.739959 	-2.65381 31.3261 	0.706651 	-2.6407 28.5323 	0.550336 	-2.24974 31.3366 	0.621152 	-2.57378 31.3424 	0.580105 	-2.53989 31.3481 	0.53917 	-2.50653 31.3535 	0.498344 	-2.47368 31.3582 	0.461824 	-2.44467 31.3585 	0.452151 	-2.43965 31.3589 	0.442457 	-2.43465 31.3592 	0.432743 	-2.42967 31.3598 	0.423417 	-2.43 31.3554 	0.386381 	-2.42715 30.1938 	0.416334 	-2.2948 27.6189 	0.39623 	-2.02946 25.0229 	0.376366 	-1.76254 22.4015 	0.356799 	-1.4937 21.7088 	0.216854 	-1.43642 24.0246 	0.227765 	-1.80971 23.1126 	0.198603 	-1.74679 23.7418 	0.160517 	-1.77793 24.5021 	0.122337 	-1.8206 20.3821 	0.042191 	-1.30591 26.1316 	0.011572 	-1.88707 26.8612 	-0.0166773 	-1.8882 27.566 	-0.0449785 	-1.88745 28.0537 	-0.0608661 	-1.89409 23.9272 	-0.129238 	-1.43986 28.5191 	-0.14293 	-1.84053 28.7971 	-0.161823 	-1.81361 29.1752 	-0.18832 	-1.77573 29.5249 	-0.214583 	-1.73627 24.8998 	-0.187592 	-1.26823 29.8935 	-0.315069 	-1.65261 30.1382 	-0.340717 	-1.60278 30.3548 	-0.366101 	-1.55138 30.5437 	-0.391223 	-1.49844 27.2522 	-0.346964 	-1.15648 30.7583 	-0.43939 	-1.41109 30.9311 	-0.461802 	-1.35696 31.0774 	-0.483774 	-1.30185 31.1974 	-0.505312 	-1.24576 27.7379 	-0.428778 	-0.937463 31.3585 	-0.560203 	-1.1466 31.4796 	-0.571836 	-1.10214 31.5815 	-0.583155 	-1.05701 31.6642 	-0.594164 	-1.01122 29.2699 	-0.518753 	-0.788795 31.6498 	-0.604151 	-0.914779 31.6325 	-0.59979 	-0.868434 31.6149 	-0.595742 	-0.822716 31.597 	-0.592003 	-0.777618 29.8932 	-0.526976 	-0.636488 31.5539 	-0.57858 	-0.690253 31.5323 	-0.571484 	-0.652019 31.5104 	-0.564621 	-0.614266 31.4881 	-0.557987 	-0.576989 30.8694 	-0.530835 	-0.504528 31.4459 	-0.547784 	-0.516713 31.4275 	-0.545215 	-0.496486 31.4088 	-0.542742 	-0.476461 31.39 	-0.540366 	-0.456636 31.3657 	-0.537442 	-0.43148 31.3631 	-0.537256 	-0.428968 31.3606 	-0.537071 	-0.426459 31.3581 	-0.536887 	-0.423953 31.3555 	-0.536704 	-0.421451 31.3529 	-0.536827 	-0.421054 31.3325 	-0.537293 	-0.402432 31.3118 	-0.538135 	-0.38597 31.2906 	-0.539443 	-0.372251 31.269 	-0.541427 	-0.36261 31.2461 	-0.544568 	-0.358922 31.2426 	-0.545203 	-0.35313 31.2363 	-0.546999 	-0.352037 31.23 	-0.548796 	-0.350947 31.2237 	-0.550595 	-0.34986 31.2176 	-0.552354 	-0.348802 31.2064 	-0.555637 	-0.343386 31.1952 	-0.558927 	-0.337968 31.1839 	-0.562226 	-0.332547 31.1727 	-0.565531 	-0.327123 31.158 	-0.567552 	-0.327707 31.1507 	-0.577525 	-0.320115 31.1393 	-0.586486 	-0.318069 31.1279 	-0.595454 	-0.315995 31.1165 	-0.604429 	-0.313896 31.0983 	-0.612259 	-0.327645 31.102 	-0.621537 	-0.313798 31.0973 	-0.630064 	-0.313093 31.0925 	-0.638597 	-0.312363 31.0877 	-0.647135 	-0.31161 31.0661 	-0.65099 	-0.328887 31.0822 	-0.660329 	-0.309304 31.0794 	-0.666257 	-0.305692 31.0765 	-0.672195 	-0.302069 31.0736 	-0.678142 	-0.298436 31.0523 	-0.683204 	-0.320854 31.0685 	-0.687808 	-0.29227 31.0628 	-0.692571 	-0.28725 31.0571 	-0.697346 	-0.282223 31.0514 	-0.702131 	-0.277191 31.0133 	-0.702896 	-0.295865 31.0422 	-0.710869 	-0.270796 31.035 	-0.716055 	-0.266417 31.0278 	-0.72125 	-0.262031 31.0205 	-0.726455 	-0.257639 30.9862 	-0.733086 	-0.283465 31.0092 	-0.735494 	-0.252093 30.9981 	-0.735183 	-0.245574 30.987 	-0.734883 	-0.239061 30.9758 	-0.734593 	-0.232554 30.9228 	-0.732663 	-0.24834 30.9602 	-0.743537 	-0.228337 30.9473 	-0.754945 	-0.227268 30.9344 	-0.766356 	-0.226177 30.9214 	-0.777768 	-0.225065 30.8749 	-0.788271 	-0.251394 30.9119 	-0.805715 	-0.234478 30.911 	-0.837289 	-0.243192 30.9102 	-0.868836 	-0.251843 30.9096 	-0.900357 	-0.260429 30.8544 	-0.91831 	-0.279213 30.9164 	-0.938097 	-0.268537 30.9261 	-0.944086 	-0.266138 30.9357 	-0.950082 	-0.263732 30.9453 	-0.956084 	-0.261319 30.9113 	-0.962805 	-0.280724 30.9636 	-0.954526 	-0.252925 30.9667 	-0.934297 	-0.238421 30.9693 	-0.913333 	-0.223788 30.9717 	-0.892394 	-0.209198 30.9042 	-0.888071 	-0.203074 30.9818 	-0.886013 	-0.191155 30.9718 	-0.873591 	-0.180468 30.9617 	-0.861175 	-0.169805 30.9492 	-0.850259 	-0.161445 30.8813 	-0.831873 	-0.170818 30.9477 	-0.852906 	-0.145194 30.9492 	-0.853484 	-0.13648 30.9376 	-0.849793 	-0.130286 30.9058 	-0.846069 	-0.126182 30.8099 	-0.842247 	-0.128721 30.8972 	-0.857408 	-0.109442 30.9144 	-0.858529 	-0.101667 30.9025 	-0.853832 	-0.0986642 30.8704 	-0.840223 	-0.102775 30.7862 	-0.801334 	-0.126223 30.869 	-0.841856 	-0.101345 30.8858 	-0.850005 	-0.0927481 30.8767 	-0.844256 	-0.0906285 30.8419 	-0.835052 	-0.0915748 30.7359 	-0.816286 	-0.101004 30.8423 	-0.83662 	-0.0867925 30.8622 	-0.838486 	-0.0805763 30.8523 	-0.833966 	-0.0771297 30.8217 	-0.819137 	-0.0783835 30.7208 	-0.767038 	-0.0962541 30.8189 	-0.821644 	-0.0649485 30.8345 	-0.832472 	-0.0540116 30.8222 	-0.8284 	-0.0499038 30.7859 	-0.818926 	-0.0491892 30.6632 	-0.789859 	-0.0607839 30.7782 	-0.820355 	-0.0405302 30.7908 	-0.823886 	-0.0341604 30.7776 	-0.820788 	-0.0310977 30.7475 	-0.808134 	-0.0316217 30.6303 	-0.744968 	-0.0555269 30.7393 	-0.812478 	-0.02703 30.7482 	-0.822975 	-0.0182543 30.7348 	-0.820502 	-0.0148784 30.7023 	-0.812273 	-0.0140697 30.5664 	-0.774271 	-0.0246957 30.6914 	-0.812849 	-0.00720264 30.6948 	-0.815243 	-0.00269514 30.6807 	-0.812623 	1.3245e-05 30.6547 	-0.802577 	-9.23137e-06 30.5232 	-0.729345 	-0.023251 30.6423 	-0.803312 	-7.87643e-05 30.6426 	-0.809246 	0.00402727 30.6289 	-0.807658 	0.00563845 30.6036 	-0.802736 	0.00557281 30.4565 	-0.760098 	-0.00476284 30.5911 	-0.804791 	0.00461189 30.5855 	-0.805465 	0.00387199 30.5753 	-0.804489 	0.00388181 30.5628 	-0.801863 	0.0036762 30.4244 	-0.723956 	-0.017258 30.5586 	-0.802715 	-0.00894261 30.5498 	-0.800085 	-0.00676057 30.5409 	-0.797389 	-0.0045858 30.53 	-0.796925 	-0.00333378 30.3817 	-0.751812 	0.00195561 30.5212 	-0.795922 	0.0128711 30.5092 	-0.795785 	0.0168526 30.5019 	-0.791204 	0.0206074 30.4945 	-0.786603 	0.0243531 30.3589 	-0.716482 	0.0124609 30.4794 	-0.781898 	0.0254805 30.4748 	-0.773617 	0.029403 30.47 	-0.76531 	0.0333125 30.4553 	-0.763003 	0.0387268 30.3388 	-0.725093 	0.0423719 30.4193 	-0.766281 	0.068397 30.3913 	-0.777047 	0.0844803 30.3713 	-0.779732 	0.129869 30.3499 	-0.782205 	0.175155 30.2774 	-0.763398 	0.198921 30.2889 	-0.795536 	0.206426 30.2577 	-0.795227 	0.211275 30.2263 	-0.794884 	0.216135 30.1967 	-0.793172 	0.21609 30.1728 	-0.789265 	0.207491 30.1698 	-0.79017 	0.206329 30.1668 	-0.791075 	0.205167 30.1638 	-0.791978 	0.204006 30.1608 	-0.79288 	0.202846 30.0337 	-0.786309 	0.203361 30.1416 	-0.765067 	0.185454 30.118 	-0.744587 	0.143884 30.0867 	-0.731869 	0.0715536 30.0581 	-0.718626 	-0.000425708 28.8916 	-0.652649 	-0.0541889 30.0528 	-0.665947 	-0.0980103 30.0629 	-0.641399 	-0.139624 30.0746 	-0.616722 	-0.181265 30.0844 	-0.591159 	-0.204965 28.5536 	-0.526904 	-0.190643 30.1019 	-0.535181 	-0.211259 30.1162 	-0.515987 	-0.230493 30.1382 	-0.496584 	-0.263218 30.1613 	-0.477164 	-0.295883 28.6653 	-0.431117 	-0.303592 30.2049 	-0.441898 	-0.323021 30.2316 	-0.436004 	-0.321475 30.2581 	-0.430103 	-0.319926 30.2772 	-0.42402 	-0.318081 28.2656 	-0.403771 	-0.295764 30.2951 	-0.437856 	-0.301615 30.3084 	-0.439915 	-0.278501 30.327 	-0.440561 	-0.244673 30.3444 	-0.441234 	-0.210815 28.3187 	-0.404412 	-0.169133 30.3493 	-0.452 	-0.170944 30.3492 	-0.45051 	-0.155436 30.3486 	-0.44906 	-0.139938 30.3457 	-0.448014 	-0.129262 27.9509 	-0.398442 	-0.104924 30.3331 	-0.442361 	-0.122113 30.3303 	-0.438044 	-0.116053 30.331 	-0.434206 	-0.107928 30.3314 	-0.430387 	-0.0998096 28.3522 	-0.380594 	-0.0823028 30.3351 	-0.426176 	-0.0838998 30.3553 	-0.424346 	-0.0700884 30.375 	-0.422554 	-0.0563004 30.3867 	-0.417332 	-0.0468688 29.0345 	-0.382969 	-0.0296313 30.3776 	-0.40591 	-0.0409884 30.3622 	-0.397066 	-0.0480576 30.347 	-0.388202 	-0.0551338 30.3411 	-0.382968 	-0.059319 30.3379 	-0.378902 	-0.0625694 30.3365 	-0.385908 	-0.062291 30.3351 	-0.392917 	-0.0620086 30.3337 	-0.399929 	-0.0617222 30.3323 	-0.406945 	-0.0614318 30.2358 	-0.381783 	-0.0800447 30.205 	-0.445034 	-0.140518 25.2105 	-0.384674 	-0.124481 19.5231 	-0.291452 	-0.0824804 20.5848 	-0.303867 	-0.0832407 19.3565 	-0.264989 	-0.0423457 21.9575 	-0.320045 	-0.0653987 22.1702 	-0.321938 	-0.0528915 22.3775 	-0.323749 	-0.0403593 22.6725 	-0.328453 	-0.0384836 20.1591 	-0.278334 	0.0117216 23.091 	-0.337118 	-0.0316653 23.0648 	-0.335174 	-0.0274174 23.1721 	-0.332389 	-0.0155023 23.2748 	-0.329544 	-0.00359636 20.8563 	-0.2677 	0.0313837 23.2634 	-0.304839 	0.0173234 23.2982 	-0.300032 	0.0205943 23.3328 	-0.295225 	0.0238473 23.1146 	-0.290201 	0.027109 20.8255 	-0.256981 	0.0567504 22.5805 	-0.281349 	0.032083 22.396 	-0.278033 	0.0336787 22.4396 	-0.276019 	0.0334041 22.4841 	-0.274017 	0.0331189 21.1485 	-0.245252 	0.0439603 22.4637 	-0.267422 	0.0332636 22.4482 	-0.26252 	0.0328112 22.4342 	-0.257639 	0.0323402 22.2941 	-0.253827 	0.0330869 21.0395 	-0.236056 	0.0476748 21.9059 	-0.246615 	0.0365237 21.7746 	-0.242445 	0.0362222 21.7119 	-0.235082 	0.0328431 21.6531 	-0.227764 	0.0294334 21.1524 	-0.212591 	0.0294971 21.4831 	-0.213165 	0.0200184 21.3849 	-0.206272 	0.0133626 21.2921 	-0.199438 	0.00667984 21.1894 	-0.194861 	0.00319128 21.038 	-0.193164 	0.00462065 21.0382 	-0.193165 	0.00462436 21.0385 	-0.193166 	0.00462807 21.0387 	-0.193167 	0.00463178 21.0389 	-0.193168 	0.00463549 21.0386 	-0.193154 	0.00462896 21.0671 	-0.193012 	0.00507608 21.0989 	-0.191026 	0.00248096 21.1375 	-0.186154 	-0.00492573 21.1773 	-0.181301 	-0.0123484 20.8241 	-0.17253 	-0.0209483 21.2554 	-0.171619 	-0.0257401 21.2908 	-0.166806 	-0.0313474 21.3269 	-0.162007 	-0.0369665 21.3621 	-0.160415 	-0.0385565 21.1915 	-0.155112 	-0.0407873 21.4464 	-0.15868 	-0.0403144 21.49 	-0.157263 	-0.0414693 21.5286 	-0.152885 	-0.0456219 21.5675 	-0.148517 	-0.0497826 20.4626 	-0.136054 	-0.0542619 21.6622 	-0.141162 	-0.0577461 21.7085 	-0.139103 	-0.0608029 21.7553 	-0.137053 	-0.0638644 21.8173 	-0.136559 	-0.0646174 21.4829 	-0.1297 	-0.0675912 21.9477 	-0.1355 	-0.0661123 22.0035 	-0.135544 	-0.066578 22.0493 	-0.135754 	-0.0684777 22.0956 	-0.135969 	-0.0703802 20.3236 	-0.126178 	-0.0710516 22.2061 	-0.136205 	-0.0703554 22.2521 	-0.136326 	-0.0705014 22.2982 	-0.136446 	-0.0706474 22.3447 	-0.136408 	-0.0705622 21.8221 	-0.127347 	-0.0761941 22.466 	-0.134944 	-0.0702606 22.5237 	-0.134454 	-0.0699024 22.5776 	-0.132387 	-0.0686649 22.6305 	-0.130316 	-0.0674259 20.2509 	-0.11694 	-0.0685503 22.7726 	-0.123011 	-0.0666033 22.8388 	-0.119502 	-0.0646609 22.9035 	-0.115987 	-0.0627157 22.9875 	-0.115312 	-0.0623388 22.3383 	-0.106452 	-0.0678834 23.167 	-0.109726 	-0.0625185 23.2529 	-0.108936 	-0.0622131 23.3159 	-0.105516 	-0.0606665 23.3774 	-0.102095 	-0.0591181 20.4168 	-0.0947353 	-0.0591507 23.5276 	-0.094803 	-0.0575122 23.5851 	-0.0914859 	-0.0566382 23.6415 	-0.0881685 	-0.055763 23.7188 	-0.0873471 	-0.0555981 22.8958 	-0.0821295 	-0.0618867 23.8909 	-0.0811259 	-0.057136 23.9811 	-0.0798612 	-0.0574789 24.0404 	-0.0749881 	-0.0586322 24.0988 	-0.0701222 	-0.0597863 20.5053 	-0.0699458 	-0.0620429 24.2458 	-0.0570755 	-0.0700174 24.3005 	-0.0494361 	-0.0720499 24.354 	-0.0418084 	-0.0740805 24.418 	-0.0399397 	-0.0746412 23.4197 	-0.0379741 	-0.0799025 24.5921 	-0.023505 	-0.0846789 24.7002 	-0.0207293 	-0.08538 24.7708 	-0.00976659 	-0.0869053 24.8394 	0.00117502 	-0.0884212 20.7171 	-0.0151664 	-0.0775472 25.0214 	0.0289492 	-0.101039 25.0906 	0.0445776 	-0.101965 25.1566 	0.0601771 	-0.10287 25.2625 	0.0644566 	-0.103487 24.1759 	0.0568575 	-0.09976 25.4499 	0.0988236 	-0.122342 25.5714 	0.106731 	-0.122666 25.6209 	0.131609 	-0.12206 25.6651 	0.156409 	-0.1214 21.3553 	0.108264 	-0.0889619 25.7661 	0.22576 	-0.154575 25.7604 	0.259419 	-0.153842 25.7474 	0.292957 	-0.152986 25.8543 	0.305888 	-0.153221 24.7364 	0.270269 	-0.122943 25.7316 	0.357051 	-0.191272 25.7143 	0.38412 	-0.164707 25.6508 	0.439949 	-0.110738 25.5648 	0.495329 	-0.0566712 21.7558 	0.414619 	0.0489639 24.9324 	0.679509 	-0.026792 24.6371 	0.727559 	0.0255681 24.3153 	0.774934 	0.0781529 27.6355 	1.05067 	0.198943 31.0028 	1.33052 	0.323613 31.0019 	1.33094 	0.323199 31.0014 	1.3305 	0.323498 31.0009 	1.33007 	0.323796 31.0005 	1.32964 	0.324095 31 	1.3292 	0.324393 30.9891 	1.31356 	0.328641 30.9781 	1.29795 	0.332815 30.9739 	1.31137 	0.338849 30.9727 	1.33805 	0.345814 30.9687 	1.34807 	0.349152 30.9974 	1.39662 	0.392955 31.0111 	1.42445 	0.433469 31.0333 	1.44546 	0.471551 31.0715 	1.45405 	0.505242 28.9618 	1.31417 	0.452076 31.1519 	1.53231 	0.585225 31.2064 	1.58466 	0.665518 31.2212 	1.63012 	0.737619 31.2166 	1.67266 	0.805861 31.2259 	1.60737 	0.951414 31.2584 	1.77241 	1.12073 31.2252 	1.8125 	1.18588 31.2092 	1.87123 	1.26273 31.1916 	1.93096 	1.34196 30.9777 	1.81848 	1.36935 31.016 	1.98366 	1.37931 30.982 	2.02921 	1.4133 30.9315 	2.04852 	1.45268 30.891 	2.00149 	1.473 30.8718 	1.82733 	1.46248 30.8086 	2.00054 	1.56014 30.752 	2.06532 	1.63332 30.6963 	2.05841 	1.68707 30.6238 	2.02998 	1.7409 30.4766 	1.90031 	1.79509 30.5064 	2.03881 	1.78952 30.4356 	2.0277 	1.80003 30.3639 	2.01454 	1.81096 30.333 	2.01665 	1.83117 30.2913 	1.91504 	1.82074 30.2068 	2.00606 	1.8295 30.1606 	2.00408 	1.81704 30.097 	1.99449 	1.81163 30.0243 	1.98098 	1.80981 29.948 	1.95496 	1.81214 29.9373 	1.96499 	1.80514 29.9217 	1.96147 	1.80369 29.906 	1.95795 	1.80222 29.8904 	1.95444 	1.80075 29.8745 	1.95086 	1.79926 29.8065 	1.9672 	1.78893 29.7443 	1.98625 	1.77631 29.6898 	2.00893 	1.76055 29.6355 	2.03136 	1.74499 29.5755 	1.9874 	1.76733 29.4986 	2.05855 	1.70077 29.4195 	2.07796 	1.65138 29.3414 	2.09644 	1.60208 29.2517 	2.10798 	1.56343 29.2363 	1.94369 	1.48345 29.0618 	2.10056 	1.42178 28.9825 	2.11017 	1.33721 28.9153 	2.12762 	1.24529 28.853 	2.12174 	1.15702 28.8081 	1.99724 	1.08795 28.7217 	2.09356 	0.937709 28.6818 	2.11305 	0.824708 28.6538 	2.11528 	0.71944 28.631 	2.11273 	0.604749 28.6861 	1.97296 	0.470753 28.5999 	2.09174 	0.355856 28.6153 	2.09599 	0.233731 28.6321 	2.1013 	0.118505 28.6516 	2.10549 	0.00327099 28.6955 	2.06261 	-0.096711 28.7186 	2.107 	-0.236036 28.7692 	2.11224 	-0.336325 28.8222 	2.11651 	-0.436635 28.8804 	2.11768 	-0.543365 28.9483 	2.10746 	-0.655745 28.9587 	2.1131 	-0.672077 28.9756 	2.1105 	-0.68792 28.9926 	2.10788 	-0.703769 29.0096 	2.10524 	-0.719622 29.0267 	2.10257 	-0.735523 29.1172 	2.09163 	-0.818474 29.1974 	2.08943 	-0.884379 29.2787 	2.08681 	-0.950228 29.3612 	2.08375 	-1.01603 29.4283 	2.0699 	-1.10704 29.5806 	2.08013 	-1.13809 29.695 	2.07096 	-1.17212 29.81 	2.06156 	-1.2062 29.9254 	2.05193 	-1.24035 29.9918 	2.01274 	-1.25066 30.1401 	2.01895 	-1.22501 30.2422 	2.0009 	-1.21821 30.3336 	1.97716 	-1.21889 30.4249 	1.9535 	-1.21974 30.4404 	1.88814 	-1.27342 30.6059 	1.89863 	-1.20461 30.6828 	1.86302 	-1.19755 30.7596 	1.82759 	-1.19069 30.8402 	1.79366 	-1.18412 30.9158 	1.74919 	-1.18579 30.9912 	1.72708 	-1.16012 31.0485 	1.69466 	-1.1451 31.0942 	1.65738 	-1.12686 31.1395 	1.62029 	-1.10872 31.1978 	1.57258 	-1.0854 31.2094 	1.56449 	-1.07986 31.221 	1.55641 	-1.07434 31.2325 	1.54834 	-1.06883 31.2441 	1.54028 	-1.06333 31.2532 	1.53126 	-1.05905 31.3205 	1.48334 	-1.01836 31.3834 	1.43379 	-0.979455 31.4453 	1.38441 	-0.94101 31.5144 	1.34482 	-0.909611 31.5533 	1.29726 	-0.899179 31.6408 	1.27032 	-0.85259 31.692 	1.22477 	-0.823639 31.7149 	1.1626 	-0.789385 31.7369 	1.10049 	-0.755589 31.7376 	1.02595 	-0.732121 31.8165 	0.996601 	-0.658421 31.8419 	0.929238 	-0.605791 31.8694 	0.8653 	-0.556174 31.9119 	0.818971 	-0.522502 31.7699 	0.680715 	-0.575035 31.9787 	0.723633 	-0.423103 32.0578 	0.703033 	-0.354738 32.0781 	0.652349 	-0.308337 32.0659 	0.581298 	-0.287662 32.0211 	0.4882 	-0.307439 32.1174 	0.489013 	-0.194516 32.1764 	0.465679 	-0.109144 32.1922 	0.413193 	-0.0710371 32.0633 	0.295535 	-0.12756 31.8661 	0.145659 	-0.222532 32.0912 	0.169812 	-0.0634549 32.2805 	0.18218 	0.0732525 32.2855 	0.1246 	0.102516 32.2335 	0.0425421 	0.0782173 32.1738 	-0.0422985 	0.042935 32.2618 	-0.0614827 	0.144368 32.3325 	-0.0879238 	0.233017 32.3333 	-0.142108 	0.256556 32.1478 	-0.253635 	0.179246 31.9155 	-0.381352 	0.0774007 32.1833 	-0.355178 	0.247017 32.3689 	-0.352793 	0.371391 32.3772 	-0.418602 	0.403805 32.3315 	-0.501143 	0.405025 32.2461 	-0.586535 	0.379184 32.342 	-0.615042 	0.483562 32.3848 	-0.676619 	0.562306 32.383 	-0.753771 	0.609177 32.3178 	-0.838383 	0.612916 32.0851 	-0.993893 	0.550368 32.321 	-0.945318 	0.715706 32.3258 	-0.993458 	0.762753 32.3138 	-1.05628 	0.82158 32.3016 	-1.12115 	0.886485 32.1952 	-1.19907 	0.895493 32.2533 	-1.22317 	0.997517 32.2341 	-1.26891 	1.07035 32.2128 	-1.31532 	1.14254 32.1779 	-1.37063 	1.1888 32.0192 	-1.47595 	1.18657 32.1022 	-1.47082 	1.29758 32.0709 	-1.51848 	1.35075 32.0643 	-1.55331 	1.43839 32.0553 	-1.58887 	1.52521 32.0321 	-1.62777 	1.60257 32.0366 	-1.6298 	1.6134 32.0351 	-1.63281 	1.62537 32.0335 	-1.63583 	1.63735 32.0319 	-1.63886 	1.64932 32.0304 	-1.64178 	1.6608 32.0416 	-1.66621 	1.74483 32.0519 	-1.69117 	1.82835 32.0611 	-1.71666 	1.91136 32.0518 	-1.75391 	1.9698 31.9301 	-1.73782 	2.04767 32.0707 	-1.83494 	2.19124 32.0678 	-1.85643 	2.28204 31.9953 	-1.86814 	2.3629 31.9068 	-1.87945 	2.44076 31.5361 	-1.87346 	2.46298 31.7332 	-1.9067 	2.56742 31.6466 	-1.91234 	2.63355 31.566 	-1.91838 	2.69933 31.5123 	-1.92486 	2.76452 31.3426 	-1.90037 	2.79823 31.3753 	-1.93385 	2.90301 31.3434 	-1.93083 	2.98551 31.307 	-1.92835 	3.06699 31.2321 	-1.92814 	3.13751 31.064 	-1.92865 	3.19053 31.0724 	-1.92807 	3.27722 31.0193 	-1.92224 	3.36143 30.9909 	-1.91541 	3.46 30.9606 	-1.90906 	3.55841 30.9217 	-1.90223 	3.65432 30.9203 	-1.9023 	3.66566 30.9157 	-1.90077 	3.67572 30.9111 	-1.89924 	3.68578 30.9065 	-1.89772 	3.69584 30.9019 	-1.89619 	3.70593 30.8906 	-1.89096 	3.74277 30.879 	-1.88581 	3.77957 30.8671 	-1.88073 	3.81634 30.854 	-1.87503 	3.85279 30.8324 	-1.86265 	3.88279 30.8014 	-1.86096 	3.92636 30.7667 	-1.85348 	3.96698 30.7304 	-1.84396 	4.00646 30.694 	-1.8345 	4.0459 30.6599 	-1.79936 	4.08267 30.6149 	-1.80243 	4.16779 30.5366 	-1.77993 	4.24367 30.4563 	-1.75768 	4.31927 30.3738 	-1.73567 	4.39459