# vtk DataFile Version 2.0
track0
ASCII
DATASET POLYDATA
POINTS 996 float
-1.001 -0.05 0.0011
-1.00075 -0.0499924 0.00106851
-1.00051 -0.0499849 0.00103703
-1.00026 -0.0499773 0.00100556
-1.00001 -0.0499697 0.000974104
-0.999764 -0.0499621 0.000942726
-0.999425 -0.0499516 0.000899841
-0.999086 -0.0499411 0.000856839
-0.998747 -0.0499305 0.000813916
-0.998408 -0.0499199 0.000771072
-0.998069 -0.0499093 0.000728296
-0.995314 -0.0498228 0.000381576
-0.992559 -0.0497353 3.9313e-05
-0.989803 -0.0496467 -0.000298525
-0.987046 -0.049557 -0.000631971
-0.984295 -0.0494663 -0.000960446
-0.981186 -0.0493607 -0.00133049
-0.978076 -0.049258 -0.00169736
-0.974966 -0.0491543 -0.00206066
-0.971855 -0.0490496 -0.00242034
-0.968748 -0.048944 -0.00277594
-0.965631 -0.0488393 -0.00312913
-0.962514 -0.0487332 -0.00348276
-0.959397 -0.0486268 -0.00383761
-0.95628 -0.0485201 -0.00419354
-0.953162 -0.0484131 -0.0045496
-0.949918 -0.0482997 -0.00492083
-0.946674 -0.0481902 -0.0052938
-0.943429 -0.0480808 -0.0056653
-0.940185 -0.0479716 -0.00603533
-0.93694 -0.0478631 -0.00640221
-0.934397 -0.047774 -0.00667806
-0.931855 -0.0476902 -0.0069586
-0.929312 -0.0476066 -0.00723718
-0.92677 -0.0475232 -0.00751395
-0.924295 -0.047442 -0.00778059
-0.923806 -0.047426 -0.00783262
-0.923317 -0.04741 -0.00788454
-0.922829 -0.0473939 -0.00793633
-0.92234 -0.0473779 -0.00798801
-0.921851 -0.0473619 -0.00803955
-0.918724 -0.0472599 -0.00836923
-0.915597 -0.0471593 -0.00869599
-0.912469 -0.0470605 -0.0090205
-0.909341 -0.0469636 -0.00934278
-0.906216 -0.0468686 -0.00966251
-0.905223 -0.0468387 -0.00976325
-0.904231 -0.0468089 -0.00986392
-0.903238 -0.0467792 -0.00996442
-0.902245 -0.0467495 -0.0100648
-0.901249 -0.0467198 -0.0101653
-0.89881 -0.0466469 -0.0104109
-0.896372 -0.0465735 -0.0106521
-0.893932 -0.0464992 -0.0108884
-0.891493 -0.0464242 -0.0111192
-0.889038 -0.0463476 -0.0113448
-0.886177 -0.0462633 -0.0115996
-0.883318 -0.0461749 -0.0118695
-0.880458 -0.0460898 -0.0121378
-0.877599 -0.0460048 -0.012406
-0.874738 -0.0459199 -0.0126742
-0.871645 -0.0458363 -0.0129483
-0.868553 -0.0457465 -0.0132326
-0.865461 -0.0456585 -0.0135133
-0.862369 -0.0455722 -0.0137908
-0.859275 -0.0454874 -0.0140652
-0.856183 -0.045417 -0.0143325
-0.853092 -0.045336 -0.0146025
-0.85 -0.0452587 -0.0148697
-0.846908 -0.045185 -0.0151342
-0.843816 -0.0451152 -0.0153948
-0.841716 -0.0450747 -0.0155604
-0.839617 -0.0450331 -0.0157328
-0.837518 -0.0449942 -0.0159029
-0.835418 -0.0449581 -0.0160708
-0.833535 -0.0449282 -0.0162193
-0.832469 -0.0449125 -0.0163025
-0.831403 -0.0448971 -0.0163854
-0.830336 -0.0448821 -0.0164682
-0.82927 -0.0448674 -0.0165509
-0.828203 -0.044853 -0.0166335
-0.824769 -0.0448106 -0.0168994
-0.821333 -0.0447633 -0.0171605
-0.817897 -0.044714 -0.0174129
-0.814461 -0.0446623 -0.017655
-0.811005 -0.0446072 -0.0178854
-0.808124 -0.0445785 -0.018076
-0.805245 -0.0445512 -0.0182929
-0.802366 -0.0445264 -0.0185105
-0.799487 -0.044507 -0.0187261
-0.796607 -0.0444926 -0.0189401
-0.793496 -0.0444862 -0.0191394
-0.790388 -0.0444848 -0.0193639
-0.787278 -0.0444867 -0.0195825
-0.784169 -0.0444918 -0.0197954
-0.781059 -0.0444985 -0.0200053
-0.777967 -0.0445152 -0.0201914
-0.774876 -0.0445307 -0.0203909
-0.771784 -0.0445481 -0.0205856
-0.768692 -0.0445681 -0.0207738
-0.765599 -0.0445905 -0.0209557
-0.762479 -0.044614 -0.0211146
-0.759361 -0.0446469 -0.021287
-0.756242 -0.0446822 -0.0214528
-0.753123 -0.0447198 -0.0216122
-0.750003 -0.0447597 -0.0217653
-0.746878 -0.0447995 -0.0218979
-0.743754 -0.0448442 -0.0220413
-0.740629 -0.0448908 -0.0221784
-0.737504 -0.0449395 -0.0223093
-0.734379 -0.0449901 -0.0224341
-0.731254 -0.0450384 -0.0225397
-0.72813 -0.0450942 -0.0226539
-0.725006 -0.0451509 -0.0227633
-0.721881 -0.0452086 -0.0228678
-0.718756 -0.0452673 -0.0229677
-0.715631 -0.0453227 -0.0230519
-0.712506 -0.0453823 -0.0231422
-0.709382 -0.0454416 -0.023228
-0.706257 -0.0455004 -0.0233093
-0.703131 -0.045559 -0.0233862
-0.700006 -0.0456141 -0.0234528
-0.696881 -0.0456714 -0.0235211
-0.693756 -0.045728 -0.0235857
-0.690631 -0.045784 -0.0236466
-0.687507 -0.0458394 -0.0237039
-0.684866 -0.0458848 -0.0237471
-0.682226 -0.0459308 -0.0237904
-0.679585 -0.0459766 -0.0238322
-0.676945 -0.0460222 -0.0238722
-0.67356 -0.0460805 -0.0239214
-0.673225 -0.0460862 -0.0239261
-0.672889 -0.046092 -0.0239307
-0.672553 -0.0460978 -0.0239352
-0.672217 -0.0461035 -0.0239398
-0.671881 -0.0461093 -0.0239443
-0.668755 -0.0461628 -0.0239863
-0.66563 -0.0462164 -0.0240264
-0.662505 -0.0462701 -0.0240649
-0.65938 -0.046324 -0.0241021
-0.656255 -0.0463781 -0.0241383
-0.655216 -0.0463962 -0.0241503
-0.654177 -0.0464143 -0.024162
-0.653139 -0.0464325 -0.0241737
-0.6521 -0.0464507 -0.0241854
-0.651085 -0.0464686 -0.0241968
-0.648994 -0.0465056 -0.0242201
-0.646903 -0.0465429 -0.0242431
-0.644811 -0.0465803 -0.0242658
-0.64272 -0.046618 -0.0242881
-0.640628 -0.046656 -0.0243101
-0.637503 -0.0467129 -0.0243429
-0.634378 -0.0467709 -0.024375
-0.631253 -0.0468297 -0.024407
-0.628128 -0.0468895 -0.0244387
-0.625003 -0.0469502 -0.0244702
-0.621877 -0.0470117 -0.0245031
-0.618752 -0.0470742 -0.0245347
-0.615627 -0.0471375 -0.0245661
-0.612502 -0.0472017 -0.0245975
-0.609377 -0.0472667 -0.0246289
-0.606252 -0.0473322 -0.0246619
-0.603126 -0.0473986 -0.024693
-0.600001 -0.0474656 -0.0247238
-0.596876 -0.0475332 -0.0247542
-0.593751 -0.0476014 -0.0247842
-0.590626 -0.0476702 -0.0248165
-0.5875 -0.0477394 -0.0248459
-0.584375 -0.0478091 -0.0248748
-0.581249 -0.0478792 -0.0249032
-0.578124 -0.0479499 -0.0249311
-0.574999 -0.0480207 -0.0249609
-0.571873 -0.0480923 -0.0249881
-0.568748 -0.0481644 -0.025015
-0.565622 -0.0482371 -0.0250414
-0.562497 -0.0483103 -0.0250673
-0.559371 -0.0483842 -0.0250959
-0.556245 -0.0484584 -0.0251213
-0.55312 -0.0485325 -0.0251461
-0.549994 -0.0486066 -0.0251702
-0.546868 -0.0486807 -0.0251937
-0.543742 -0.0487548 -0.0252188
-0.540616 -0.0488299 -0.0252418
-0.537489 -0.0489062 -0.0252648
-0.534363 -0.0489836 -0.0252877
-0.531237 -0.0490622 -0.0253104
-0.52811 -0.0491421 -0.0253359
-0.524984 -0.0492236 -0.0253596
-0.521858 -0.0493082 -0.0253842
-0.518731 -0.0493961 -0.0254097
-0.515604 -0.0494872 -0.025436
-0.512478 -0.0495802 -0.0254643
-0.509352 -0.0496751 -0.0254914
-0.506225 -0.0497705 -0.0255183
-0.503099 -0.0498666 -0.025545
-0.499973 -0.0499632 -0.0255714
-0.496847 -0.0500605 -0.0255998
-0.493721 -0.0501569 -0.0256253
-0.490594 -0.0502512 -0.0256494
-0.487468 -0.0503434 -0.025672
-0.484343 -0.0504335 -0.0256931
-0.481217 -0.0505233 -0.0257136
-0.478092 -0.0506126 -0.0257329
-0.474967 -0.0507008 -0.0257511
-0.471842 -0.0507877 -0.0257683
-0.468717 -0.0508736 -0.0257846
-0.465593 -0.0509577 -0.0258018
-0.462469 -0.0510438 -0.0258165
-0.459346 -0.05113 -0.0258303
-0.456222 -0.0512158 -0.0258434
-0.453098 -0.0513013 -0.0258562
-0.449974 -0.0513867 -0.0258692
-0.44685 -0.0514734 -0.0258803
-0.443726 -0.0515601 -0.0258906
-0.440602 -0.0516464 -0.0259005
-0.437478 -0.0517315 -0.0259109
-0.434355 -0.0518127 -0.0259238
-0.431232 -0.0518979 -0.025934
-0.428109 -0.0519839 -0.0259434
-0.424986 -0.0520692 -0.0259526
-0.421863 -0.0521538 -0.0259618
-0.41874 -0.0522368 -0.0259721
-0.415616 -0.0523215 -0.0259809
-0.412493 -0.0524064 -0.025989
-0.409369 -0.0524908 -0.0259968
-0.406245 -0.0525738 -0.0260048
-0.403122 -0.0526518 -0.0260146
-0.399999 -0.052735 -0.0260212
-0.396876 -0.0528194 -0.0260266
-0.393753 -0.0529033 -0.0260317
-0.39063 -0.0529864 -0.0260367
-0.387506 -0.0530668 -0.0260429
-0.384383 -0.0531501 -0.026047
-0.381259 -0.0532337 -0.0260504
-0.378136 -0.053317 -0.0260536
-0.375012 -0.0533991 -0.0260568
-0.371888 -0.053475 -0.0260625
-0.368765 -0.0535576 -0.0260652
-0.365642 -0.0536412 -0.0260671
-0.362519 -0.0537246 -0.0260686
-0.359395 -0.0538072 -0.02607
-0.356271 -0.0538863 -0.0260725
-0.353147 -0.0539691 -0.0260733
-0.350023 -0.054052 -0.0260735
-0.346899 -0.0541348 -0.0260735
-0.343775 -0.0542166 -0.0260735
-0.340652 -0.0542912 -0.0260759
-0.337528 -0.0543731 -0.0260759
-0.334405 -0.0544556 -0.0260755
-0.331281 -0.054538 -0.0260749
-0.328157 -0.0546199 -0.0260744
-0.325033 -0.0546979 -0.0260749
-0.321909 -0.0547801 -0.0260744
-0.318785 -0.0548623 -0.026074
-0.315661 -0.0549445 -0.0260736
-0.312536 -0.0550265 -0.0260732
-0.309412 -0.0551008 -0.026075
-0.306288 -0.0551829 -0.0260759
-0.303164 -0.0552647 -0.0260766
-0.30004 -0.0553463 -0.0260771
-0.296915 -0.0554279 -0.0260774
-0.29379 -0.0555052 -0.0260772
-0.290665 -0.0555867 -0.0260759
-0.28754 -0.0556682 -0.0260742
-0.284415 -0.0557492 -0.0260721
-0.28129 -0.0558299 -0.0260696
-0.278164 -0.0559036 -0.0260683
-0.275038 -0.0559838 -0.0260657
-0.271911 -0.0560632 -0.0260627
-0.268785 -0.0561417 -0.0260592
-0.265659 -0.0562201 -0.0260553
-0.262528 -0.0562949 -0.0260509
-0.259398 -0.0563737 -0.0260438
-0.256267 -0.0564538 -0.0260351
-0.253137 -0.0565341 -0.0260218
-0.250006 -0.0566148 -0.0260037
-0.247107 -0.0566879 -0.0259846
-0.244208 -0.0567641 -0.0259649
-0.241309 -0.0568402 -0.0259446
-0.238411 -0.0569165 -0.0259239
-0.235731 -0.0569869 -0.0259047
-0.235465 -0.0569938 -0.0259029
-0.2352 -0.0570008 -0.0259011
-0.234934 -0.0570077 -0.0258993
-0.234669 -0.0570147 -0.0258975
-0.234403 -0.0570217 -0.0258957
-0.23128 -0.0571034 -0.0258746
-0.228156 -0.0571827 -0.0258553
-0.225032 -0.05726 -0.0258404
-0.221908 -0.057336 -0.025833
-0.218786 -0.0574106 -0.025833
-0.215661 -0.0574812 -0.0258389
-0.212537 -0.0575504 -0.0258491
-0.209412 -0.0576171 -0.0258636
-0.206288 -0.0576812 -0.0258824
-0.203163 -0.0577426 -0.0259037
-0.200038 -0.0578002 -0.0259246
-0.196913 -0.0578558 -0.0259465
-0.193788 -0.0579093 -0.0259704
-0.190663 -0.0579608 -0.0259977
-0.187538 -0.0580103 -0.0260284
-0.184407 -0.0580573 -0.0260615
-0.181276 -0.0581031 -0.026095
-0.178146 -0.0581483 -0.0261283
-0.175015 -0.0581928 -0.0261614
-0.171884 -0.0582366 -0.0261943
-0.168757 -0.0582813 -0.026227
-0.16563 -0.0583265 -0.0262582
-0.162502 -0.0583719 -0.0262869
-0.159375 -0.0584173 -0.0263121
-0.156248 -0.0584628 -0.0263339
-0.153122 -0.0585074 -0.0263525
[...]
POINT_DATA 996
 FIELD attributes 2
p 1 996 float
-36.7385 -36.827 -36.9155 -37.0041 -37.048 -37.0765 -37.3804 -37.4722 -37.5642 -37.6563 -37.7484 -38.6706 -39.5951 -40.522 -41.4511 -42.144 -42.11 -41.8394 -41.5352 -41.2319 -41.1236 -41.369 -41.4797 -41.6278 -42.0711 -42.4862 -44.1112 -45.0851 -46.0592 -46.9993 -47.5009 -48.6361 -49.1858 -49.7359 -50.2084 -50.6329 -50.7291 -50.8254 -50.9218 -51.0182 -51.1223 -51.5978 -52.1015 -52.6063 -53.1121 -53.7532 -53.9578 -54.1135 -54.2692 -54.425 -54.5673 -54.686 -54.8044 -54.9226 -55.0405 -55.6535 -56.3129 -57.264 -58.0217 -58.7794 -59.671 -60.8401 -61.2974 -61.7541 -62.2101 -61.7798 -61.5045 -61.2295 -60.9559 -60.6578 -60.1313 -60.255 -60.5148 -60.7756 -61.0375 -61.2733 -61.3413 -61.4096 -61.4781 -61.4691 -61.6914 -61.9789 -62.3404 -62.7014 -63.0617 -63.7159 -64.5639 -66.0969 -67.2416 -68.3553 -69.828 -73.5893 -74.4377 -75.2853 -76.3999 -74.186 -77.3193 -77.5584 -77.7765 -77.9977 -76.4232 -78.0451 -78.1436 -78.2455 -78.3508 -77.1958 -78.3279 -78.0123 -77.6996 -77.3896 -76.1158 -76.3865 -75.8021 -75.2201 -74.6406 -73.3547 -73.4979 -72.9828 -72.4724 -71.9665 -71.1732 -70.9163 -70.2711 -69.6306 -68.9945 -68.2767 -67.6619 -67.0605 -66.46 -65.8604 -65.093 -65.0171 -64.9412 -64.8654 -64.7896 -64.7201 -64.1738 -63.6324 -63.0972 -62.571 -62.0639 -61.9145 -61.7639 -61.6133 -61.4626 -61.3156 -61.0031 -60.6906 -60.3781 -60.0656 -59.7841 -59.4232 -59.0771 -58.7311 -58.3851 -58.1054 -57.969 -57.894 -57.8189 -57.7438 -57.7613 -57.7655 -57.8493 -57.9331 -58.0169 -58.1513 -58.0705 -58.0653 -58.0601 -58.0549 -58.1125 -57.957 -57.8795 -57.802 -57.7245 -57.766 -57.5763 -57.5131 -57.4499 -57.3868 -57.455 -57.1621 -56.8622 -56.5623 -56.2626 -56.13 -55.9614 -55.9306 -55.8998 -55.8692 -56.001 -56.1665 -56.8088 -57.4511 -58.0933 -58.8464 -58.8472 -59.2775 -59.7087 -60.1403 -60.7899 -60.5978 -60.5254 -60.4532 -60.4296 -60.7516 -60.4047 -60.213 -60.0357 -59.9579 -60.1971 -59.9104 -59.805 -59.7749 -59.795 -59.966 -59.8129 -59.8069 -59.8785 -59.9999 -60.2598 -60.232 -60.2995 -60.4 -60.5305 -60.7206 -60.744 -60.7797 -60.8088 -60.8468 -60.9168 -60.8125 -60.7601 -60.727 -60.7408 -60.788 -60.7219 -60.7027 -60.6958 -60.7061 -60.8072 -60.7032 -60.6621 -60.6138 -60.5539 -60.5458 -60.4198 -60.3758 -60.3282 -60.2668 -60.3452 -60.2467 -60.2341 -60.2331 -60.2349 -60.2952 -60.2915 -60.4359 -60.5805 -60.7351 -61.0133 -61.2327 -61.358 -61.4769 -61.5957 -61.5684 -61.675 -61.8697 -62.0645 -62.1413 -62.2518 -62.2577 -62.2781 -62.8085 -63.3381 -63.6179 -62.6339 -61.5636 -60.4935 -59.673 -59.3488 -59.3106 -59.2724 -59.2342 -59.196 -59.1781 -59.2376 -58.6792 -57.3185 -55.9733 -54.8267 -56.1976 -56.9709 -57.7439 -58.4656 -58.9869 -59.8581 -60.5272 -61.367 -62.2038 -62.2709 -63.6735 -64.8692 -66.0649 -66.9802 -67.63 -68.5163 -69.2542 -70.1468 -71.042 -71.874 -71.5744 -71.5204 -71.4667 -71.5208 -71.6013 -71.8436 -71.9745 -72.0575 -72.1405 -72.3159 -72.407 -72.5249 -72.6431 -72.7331 -72.716 -72.6834 -72.859 -73.0348 -73.2033 -73.3629 -73.4473 -73.5317 -73.6162 -73.7006 -74.0967 -75.4418 -75.7391 -75.6552 -76.0545 -75.9243 -76.1576 -76.0864 -76.0151 -76.1899 -75.8457 -75.9641 -75.7842 -75.6804 -75.5768 -75.4558 -75.3409 -75.1357 -74.9306 -74.57 -74.119 -73.6907 -73.5105 -73.3721 -73.2336 -73.1985 -73.2028 -73.1656 -73.1285 -73.0862 -73.0304 -72.8665 -72.66 -72.5019 -72.344 -72.1538 -72.0328 -71.8984 -71.7643 -71.6109 -71.3858 -71.385 -71.3841 -71.3833 -71.3825 -71.3818 -71.5017 -71.6032 -71.6755 -71.748 -71.8376 -72.0634 -72.2932 -72.5232 -72.7869 -73.068 -73.3313 -73.5984 -73.8456 -74.0929 -74.3691 -74.5958 -74.8333 -75.0707 -75.3243 -75.6066 -75.906 -76.2226 -76.519 -76.8156 -77.1678 -77.5411 -77.9279 -78.3148 -78.7245 -79.1382 -79.5156 -79.9143 -80.3043 -80.6944 -81.0912 -81.3631 -81.6638 -81.9645 -82.2751 -82.6029 -82.7658 -82.9759 -83.1842 -83.3925 -83.6646 -83.7873 -83.992 -84.1967 -84.3911 -84.663 -84.7683 -84.9489 -85.1788 -85.4089 -85.6872 -85.8095 -86.1419 -86.4745 -86.7985 -87.2721 -87.5772 -88.0616 -88.5162 -88.9711 -89.5363 -89.8337 -90.4011 -90.9689 -91.5402 -92.2686 -92.584 -93.2844 -93.9905 -94.6976 -95.5158 -95.8221 -96.7982 -97.7763 -98.8546 -100.305 -101.481 -104.049 -105.29 -106.542 -109.162 -107.442 -107.559 -107.689 -108.885 -110.161 -110.127 -110.092 -110.056 -110.021 -109.986 -108.651 -107.317 -106.703 -106.417 -106.648 -107.405 -108.179 -109.24 -110.812 -112.408 -113.065 -113.739 -114.104 -114.327 -114.721 -114.906 -114.043 -112.849 -111.533 -109.235 -105.073 -102.63 -100.572 -99.1749 -98.6801 -97.4085 -96.2678 -95.214 -94.2193 -93.488 -91.0151 -88.9092 -86.8085 -84.653 -82.8768 -80.0157 -77.5759 -75.352 -73.2398 -71.2581 -70.7906 -70.4087 -70.0269 -69.6451 -69.2567 -67.6838 -66.0274 -64.2588 -62.4907 -60.9121 -58.5925 -56.1469 -53.701 -51.4066 -48.2581 -45.057 -42.723 -40.363 -38.0726 -36.1068 -33.9626 -32.8293 -31.9206 -30.9458 -30.6436 -30.3228 -30.755 -31.2204 -31.7001 -32.5729 -33.9037 -35.6502 -37.409 -39.2792 -41.3266 -41.8019 -42.3303 -42.8589 -43.3877 -43.9182 -46.58 -48.8113 -51.0461 -53.2843 -55.6737 -58.9576 -62.3643 -65.7731 -69.184 -73.2518 -76.898 -80.1893 -83.5066 -86.8248 -90.3219 -93.0513 -95.996 -98.9419 -101.803 -104.422 -106.207 -107.935 -109.928 -111.922 -114.502 -114.991 -115.48 -115.969 -116.458 -116.918 -118.695 -120.465 -122.239 -123.981 -125.723 -127.173 -128.726 -130.479 -132.238 -133.894 -135.333 -136.753 -138.163 -139.484 -141.027 -141.434 -142.098 -142.824 -143.58 -144.39 -144.892 -145.509 -146.122 -147.119 -148.373 -147.845 -147.474 -147.886 -148.693 -149.572 -149.509 -149.502 -149.913 -151.049 -152.333 -152.394 -152.604 -153.291 -153.995 -154.628 -155.201 -155.789 -156.342 -156.918 -157.809 -157.437 -157.645 -157.688 -157.674 -157.556 -157.556 -157.226 -156.903 -156.835 -156.824 -156.198 -155.8 -155.209 -154.626 -154.052 -153.991 -153.92 -153.85 -153.779 -153.712 -153.049 -152.39 -151.735 -151.312 -151.424 -151.567 -150.875 -150.006 -149.132 -147.97 -146.89 -145.818 -144.72 -143.51 -142.355 -141.517 -140.618 -139.723 -138.774 -137.938 -136.942 -135.913 -134.84 -133.776 -132.722 -132.592 -132.443 -132.293 -132.144 -131.994 -131.466 -130.94 -130.416 -129.891 -129.407 -128.767 -128.174 -127.599 -127.017 -126.341 -124.883 -123.508 -122.142 -120.784 -119.387 -117.759 -116.246 -114.568 -112.83 -111.099 -109.606 -108.034 -106.449 -104.87 -103.559 -103.404 -103.249 -103.094 -102.939 -102.78 -101.072 -99.3577 -97.6473 -96.0128 -94.5493 -92.4063 -90.5783 -88.8832 -87.3581 -86.0579 -84.9084 -83.7278 -82.5294 -81.335 -80.295 -79.8377 -79.3809 -78.9246 -78.5104 -78.1458 -76.3414 -74.565 -72.7207 -71.0692 -69.4431 -67.2286 -65.0488 -62.9202 -60.8012 -58.9375 -58.882 -58.8265 -58.7711 -58.7239 -58.6823 -56.3808 -54.1022 -51.8367 -49.7146 -47.6428 -45.2882 -42.8213 -40.0527 -37.2224 -34.8 -34.4909 -34.1822 -33.8736 -33.5732 -33.2745 -29.6945 -26.2257 -22.9255 -19.3407 -15.6523 -13.9464 -12.2288 -9.74915 -7.27195 -5.03814 -2.97675 -0.928032 1.15537 3.84918 6.57684 11.013 15.4769 20.7867 26.1314 30.8257 31.6308 32.4352 33.2382 34.0339 34.8329 41.4792 47.7815 53.6408 59.4501 64.7886 66.0154 67.2421 68.523 69.8101 71.0886 75.7104 80.3313 84.7766 88.0693 91.2293 94.1117 96.9938 99.5898 102.149 104.757 106.666 108.574 110.193 111.42 112.671 116.257 119.442 122.617 125.784 128.405 128.518 128.631 128.711 128.791 128.872 131.148 133.1 135.037 136.964 138.63 139.562 140.343 141.03 141.711 142.367 142.866 143.248 143.627 144.006 144.317 144.582 144.808 145.032 145.254 145.492 145.72 145.927 146.131 146.332 146.473 146.529 146.529 146.527 146.522 146.418 146.456 146.421 146.38 146.315 146.053 145.836 145.534 145.277 145.022 144.66 144.172 143.817 143.322 142.851 142.333 142.256 142.179 142.102 142.013 141.904 139.609 137.414 135.182 133.083 131.186 130.424 129.658 128.118 125.239 122.336 117.037 113.885 110.277 105.76 99.9651 96.1663 92.6399 89.4819 86.3088 83.2635 81.0302 79.191 77.3254 74.9757 73.4539 69.0466 65.2663 62.1971 57.9423 53.3468 50.4594 47.8511 45.6514 43.5477 41.7879 38.2282 35.1436 32.4129 29.6832 26.8174 25.0805 23.176 21.293 19.5656 17.8667 16.7504 15.6473 14.4932 13.3224 12.2633 11.4575 10.5696 9.6932 8.83441 8.01889 7.39944 6.89046 6.39959 5.92859 5.6592 5.22881 4.85187 4.47472 4.10219 3.6691 3.38197 3.12109 2.86721 2.61332 2.36216 2.02373 1.82135 1.61886 1.3505 1.08091 0.968038 0.852973 0.737908 0.622592 0.507988 0.458479 0.408015 0.357552 0.308709 0.260282 0.236721 0.212302 0.187884 0.163958 0.139981 0.126705 0.11305 0.0993941 0.086046 0.0727542 0.0655794 0.0583354 0.0510914 0.0442768 0.037608 0.0339765 0.0303377 0.0266989 0.0235022 0.0204176 0.0184631 0.0165459 0.0146287 0.0131008 0.0116829 0.0104993 0.00934892 0.00819851 0.0073961 0.00667188 0.0059093 0.00523197 0.00455463 0.00427663 0.00410938 0.00280038 0.00147125 0.000142124 9.3787e-05 8.27885e-05
k 1 996 float
0.554604 0.554736 0.554868 0.555 0.554599 0.554015 0.555043 0.555231 0.555421 0.555612 0.555805 0.557205 0.558701 0.560292 0.56198 0.568707 0.56217 0.567769 0.573937 0.580199 0.587959 0.592197 0.608254 0.622823 0.625949 0.640786 0.641617 0.643367 0.645163 0.644149 0.632967 0.637833 0.642466 0.647126 0.649061 0.64971 0.650078 0.650449 0.650824 0.651201 0.651996 0.661233 0.673294 0.6854 0.697551 0.701644 0.701821 0.70186 0.701905 0.701954 0.701931 0.699103 0.696388 0.693803 0.691364 0.684914 0.685086 0.680834 0.6846 0.688368 0.683834 0.700083 0.705199 0.710385 0.715637 0.695665 0.736444 0.745199 0.754002 0.760383 0.744739 0.776146 0.783411 0.790832 0.798404 0.80533 0.8103 0.815281 0.820271 0.823196 0.829877 0.831147 0.824524 0.818195 0.812221 0.798559 0.815655 0.79869 0.800215 0.803449 0.781686 0.81014 0.812281 0.814584 0.812363 0.772738 0.827086 0.835122 0.839998 0.845046 0.81559 0.862692 0.868733 0.874944 0.881323 0.852956 0.903748 0.909891 0.916273 0.92289 0.899743 0.941103 0.947869 0.954821 0.961959 0.940823 0.978329 0.984423 0.990889 0.997723 0.988765 1.01391 1.02073 1.02788 1.03534 1.03448 1.04945 1.05619 1.06309 1.07015 1.07941 1.08042 1.08142 1.08243 1.08345 1.08459 1.09313 1.10221 1.11193 1.12253 1.13447 1.13407 1.13757 1.14106 1.14457 1.14799 1.15287 1.15778 1.16271 1.16767 1.17921 1.17879 1.18608 1.19336 1.20063 1.22086 1.21003 1.21784 1.22563 1.23341 1.27355 1.24414 1.25226 1.2604 1.26855 1.31258 1.27747 1.28651 1.29558 1.3047 1.3755 1.31492 1.32527 1.33565 1.34606 1.41301 1.35635 1.36779 1.37931 1.39093 1.48677 1.40195 1.41261 1.42323 1.43382 1.51665 1.44035 1.44825 1.4559 1.46329 1.58153 1.47013 1.47822 1.48632 1.49443 1.59597 1.49574 1.50167 1.50832 1.5153 1.67106 1.5098 1.51626 1.52294 1.53719 1.66865 1.53288 1.51706 1.52418 1.57393 1.75919 1.57175 1.52791 1.54357 1.59944 1.76028 1.59941 1.56501 1.58051 1.64789 1.85886 1.64988 1.60799 1.62387 1.67944 1.8678 1.68225 1.64833 1.66428 1.72698 1.95916 1.7312 1.6978 1.71369 1.76261 1.97499 1.7678 1.74194 1.75726 1.80926 2.05938 1.81544 1.79715 1.81136 1.8479 2.08139 1.85516 1.844 1.85763 1.89236 2.15727 1.90091 1.90459 1.91705 1.93399 2.18568 1.94381 1.95614 1.96872 1.98569 2.25099 2.00559 2.02097 2.03016 2.03952 2.27368 2.06863 2.08393 2.09941 2.11471 2.31113 2.16159 2.18721 2.21224 2.23923 2.34365 2.2896 2.30348 2.31755 2.33799 2.36761 2.37098 2.37435 2.37771 2.38107 2.37538 2.42197 2.45414 2.47941 2.50112 2.41889 2.53336 2.53834 2.54118 2.54703 2.43417 2.55858 2.56309 2.56262 2.56056 2.42653 2.56483 2.57077 2.57682 2.58376 2.44009 2.59963 2.60131 2.59958 2.59953 2.40564 2.60976 2.60905 2.60912 2.61581 2.44439 2.64361 2.64637 2.64188 2.6378 2.43288 2.6305 2.61654 2.60332 2.60185 2.50924 2.60799 2.61182 2.61551 2.60638 2.59421 2.58765 2.58108 2.5745 2.5679 2.657 2.63505 2.41772 2.17519 2.20468 2.11053 2.18643 2.17812 2.16998 2.11905 2.0803 2.08475 2.0902 2.08376 2.0775 1.97196 2.07188 2.07045 2.06913 2.07053 2.03077 2.08045 2.08372 2.08235 2.08101 2.02485 2.08791 2.08711 2.08639 2.0909 2.04805 2.10745 2.11057 2.10885 2.10721 2.08419 2.10683 2.10507 2.10335 2.10486 2.11247 2.11251 2.11255 2.11259 2.11263 2.11269 2.1214 2.12716 2.12818 2.12916 2.1396 2.13055 2.13163 2.1327 2.13853 2.16067 2.15147 2.15716 2.15816 2.15916 2.19199 2.15941 2.16034 2.16125 2.16662 2.20426 2.1754 2.18096 2.18221 2.18344 2.24075 2.18384 2.18557 2.1873 2.19388 2.24961 2.20206 2.20853 2.21016 2.21184 2.29487 2.21143 2.21239 2.21345 2.21835 2.29021 2.22158 2.22511 2.22562 2.22622 2.3336 2.22438 2.22482 2.22533 2.22841 2.31725 2.22923 2.23086 2.23104 2.2313 2.3636 2.22956 2.23035 2.23124 2.23452 2.3406 2.23684 2.23766 2.23835 2.2392 2.3912 2.24052 2.24123 2.24219 2.24202 2.35243 2.24441 2.23828 2.23855 2.2392 2.38474 2.24887 2.24781 2.24725 2.23162 2.31397 2.23555 2.2173 2.20415 2.1923 2.27839 2.21731 2.21361 2.21141 2.27663 2.34751 2.34798 2.34819 2.34841 2.34863 2.34885 2.36085 2.37274 2.38292 2.39262 2.36842 2.38907 2.38908 2.38964 2.39042 2.33518 2.34368 2.31833 2.31074 2.31214 2.23953 2.28489 2.29678 2.29711 2.29405 2.26278 2.32146 2.33507 2.33919 2.30518 2.19061 2.26806 2.2897 2.28031 2.26325 2.20838 2.2432 2.2424 2.24074 2.22195 2.16905 2.20313 2.19057 2.18687 2.18775 2.18471 2.18855 2.18945 2.19035 2.19125 2.19217 2.1972 2.19859 2.19507 2.19148 2.17422 2.1937 2.19491 2.19567 2.20424 2.18642 2.22109 2.23113 2.23454 2.23174 2.19933 2.24813 2.25795 2.25876 2.2588 2.23951 2.27166 2.27533 2.27755 2.27878 2.26387 2.28904 2.29194 2.29399 2.29604 2.29675 2.29888 2.299 2.2991 2.29917 2.29923 2.30241 2.30518 2.30749 2.30934 2.30099 2.30553 2.30449 2.3032 2.30166 2.27153 2.28371 2.27796 2.27003 2.26217 2.23789 2.23709 2.23079 2.22461 2.21653 2.19668 2.19144 2.18139 2.17491 2.16859 2.16064 2.15913 2.15763 2.15614 2.15466 2.15294 2.14234 2.13199 2.12205 2.11003 2.09932 2.08719 2.0765 2.07408 2.07205 2.06623 2.06138 2.0545 2.04703 2.03399 2.03396 2.01139 1.9946 1.99094 1.98725 1.97477 1.9656 1.96 1.95309 1.96753 1.9941 1.94535 1.90372 1.89928 1.89299 1.88527 1.87409 1.86647 1.86639 1.91268 1.97142 1.8965 1.84429 1.8405 1.84023 1.84353 1.83465 1.82903 1.8279 1.8448 1.90581 1.83723 1.83393 1.83663 1.83991 1.85272 1.84205 1.84082 1.84051 1.84611 1.88816 1.85582 1.86021 1.85154 1.84389 1.83998 1.83913 1.83872 1.83832 1.83793 1.83758 1.83033 1.82368 1.81763 1.82046 1.83053 1.83918 1.83849 1.84579 1.85592 1.9057 1.8752 1.88307 1.88875 1.88449 1.88149 1.88535 1.87218 1.86076 1.86435 1.87966 1.87532 1.87332 1.86436 1.85621 1.84916 1.84928 1.84889 1.8485 1.84813 1.84777 1.84606 1.84448 1.84303 1.84178 1.84158 1.84235 1.84435 1.84691 1.84936 1.84404 1.84529 1.84908 1.85356 1.85871 1.84956 1.85546 1.86304 1.85896 1.85065 1.83319 1.84346 1.83878 1.83104 1.82372 1.81574 1.81534 1.81494 1.81455 1.81392 1.81219 1.80875 1.80719 1.8066 1.80705 1.80886 1.80168 1.8037 1.80237 1.79494 1.78783 1.79462 1.79388 1.78854 1.78345 1.77936 1.77975 1.78018 1.78065 1.77673 1.76752 1.77232 1.77243 1.77193 1.76845 1.76448 1.76161 1.75275 1.74087 1.72943 1.71971 1.71945 1.71919 1.71893 1.7188 1.71876 1.71031 1.70305 1.69639 1.68296 1.67013 1.67549 1.67623 1.66455 1.65624 1.65022 1.64953 1.64884 1.64816 1.6459 1.64325 1.63659 1.63065 1.62218 1.62535 1.62283 1.61761 1.61262 1.61288 1.61322 1.61186 1.60682 1.60199 1.59701 1.58715 1.57721 1.57889 1.57985 1.56775 1.55463 1.54325 1.54107 1.53891 1.53676 1.53465 1.53254 1.5323 1.53039 1.52202 1.50773 1.49043 1.49319 1.49597 1.49393 1.49133 1.48875 1.48884 1.48901 1.48714 1.47508 1.46227 1.46764 1.47301 1.46766 1.46098 1.45418 1.45478 1.45536 1.45575 1.45146 1.44709 1.45205 1.4498 1.44742 1.44494 1.4369 1.43713 1.43736 1.43708 1.4368 1.43652 1.44234 1.43973 1.43687 1.43388 1.4259 1.42833 1.42652 1.42551 1.42442 1.42075 1.42149 1.42036 1.41921 1.41804 1.41584 1.41542 1.41405 1.41265 1.41123 1.40966 1.40842 1.40732 1.40618 1.40499 1.4068 1.40249 1.40094 1.39935 1.39773 1.40095 1.39497 1.39246 1.39009 1.3883 1.39319 1.38352 1.3807 1.37713 1.37331 1.38346 1.36889 1.36782 1.36603 1.37536 1.39116 1.38772 1.38428 1.38085 1.38163 1.38978 1.40589 1.43482 1.4661 1.50608 1.55716 1.47693 1.39671 1.38659 1.49479 1.60585 1.54528 1.53636 1.54253 1.57813 1.45555 1.40441 1.36579 1.34791 1.33075 1.28735 1.30355 1.29452 1.28493 1.25767 1.21826 1.17422 1.11219 1.01365 0.982326 0.970857 0.942075 0.914298 0.88694 0.85553 0.809867 0.747886 0.641915 0.599502 0.5573 0.513668 0.515774 0.499877 0.484754 0.475151 0.45408 0.45524 0.447451 0.43647 0.424451 0.40519 0.404897 0.395304 0.387019 0.380744 0.367345 0.366078 0.357464 0.349284 0.341578 0.329092 0.300342 0.287294 0.274255 0.261728 0.250726 0.247854 0.244779 0.242023 0.239267 0.234339 0.229201 0.223546 0.2179 0.218185 0.218805 0.216948 0.215159 0.21337 0.212383 0.211521 0.209885 0.208252 0.206619 0.205668 0.204768 0.203318 0.20182 0.200322 0.199404 0.198481 0.197189 0.195808 0.194428 0.193542 0.192606 0.191447 0.19017 0.188892 0.188037 0.187097 0.186052 0.184866 0.18368 0.182853 0.181916 0.180968 0.179863 0.178758 0.177959 0.177029 0.176166 0.175133 0.174101 0.173328 0.17241 0.171619 0.170652 0.169685 0.168937 0.168036 0.167711 0.167243 0.166776 0.166409 0.165911
