# vtk DataFile Version 2.0
sampleSurface
ASCII
DATASET POLYDATA
POINTS 18239 float
7.37118e-05 -8.67362e-19 0.00245418
9.63548e-05 -4.33681e-19 -0.00548565
-0.00769806 -3.61401e-20 -0.00147063
0.00794388 0 -0.00158692
-0.00773518 7.22801e-20 0.0058872
0.00793362 0 0.00567492
-0.00364585 -4.33681e-19 0.00949261
0.00357675 0 0.00953232
-2.46316e-06 -4.33681e-19 0.0116078
-0.00772273 0 -0.00933631
-0.00197666 0 0.0120428
0.00786491 0 -0.00935682
0.00200081 0 0.0120951
-5.36449e-06 0 0.0124328
-0.00234888 4.33681e-19 0.0124008
0.00236663 4.33681e-19 0.0124564
-1.74039e-05 8.67362e-19 -0.013188
0.0120963 2.1684e-19 0.009396
-0.0120741 0 0.00966407
-0.015558 0 0.00259184
0.0157256 -4.33681e-19 0.00230339
-0.0154718 4.33681e-19 -0.00541726
0.0157243 -4.33681e-19 -0.0055977
0.0132846 -4.33681e-19 0.0123014
0.013665 -8.67362e-19 0.0119268
0.00791005 -1.4456e-19 -0.0163879
-0.0133933 0 0.0125481
-0.00778438 1.4456e-19 -0.0166214
-0.0137437 0 0.0122097
0.015671 4.33681e-19 0.0114686
-0.0156778 0 0.0117479
0.015668 0 0.0123255
-0.015681 0 0.0125176
-0.0155539 0 -0.0131551
0.0156306 0 -0.0131143
0.0191295 -2.1684e-19 0.00944697
0.0176898 0 0.0119661
-0.017569 -4.33681e-19 0.0121544
-0.0192721 4.33681e-19 0.00964984
-0.0179195 0 0.0124878
0.0180595 4.33681e-19 0.01234
7.17968e-05 1.0842e-19 -0.021994
-0.0232966 1.4456e-19 -0.00140161
0.0236024 2.89121e-19 -0.00173122
0.0236529 2.1684e-19 0.00470477
-0.0233759 -7.22801e-20 0.00605485
0.0235037 0 0.00679588
-0.0231601 0 -0.00933107
0.0235431 -4.69821e-19 -0.0093987
0.0156881 7.22801e-20 -0.0218273
0.00809462 4.33681e-19 -0.0256905
-0.00736353 8.67362e-19 -0.0261413
-0.0155647 3.61401e-20 -0.0225121
0.0235348 4.33681e-19 -0.016291
-0.0232773 0 -0.0168198
0.027923 0 0.00934127
-0.0278514 -4.33681e-19 0.00987277
7.58323e-05 -3.61401e-20 -0.0299653
-0.0311636 0 0.00273536
-0.03089 -8.67362e-19 -0.00549911
0.0289697 -4.33681e-19 0.0121552
0.0313541 4.33681e-19 0.00212258
0.029347 4.33681e-19 0.0117762
-0.0292135 0 0.0125974
0.0313532 -4.33681e-19 -0.00575138
-0.0295381 -4.33681e-19 0.0122929
0.0313174 0 0.0113089
-0.0307831 0 -0.0131362
-0.0313122 0 0.0118791
0.0313145 -4.33681e-19 0.0121694
0.0156907 0 -0.0297295
-0.0313167 0 0.0125703
0.0313247 0 -0.0131599
-0.0155614 3.61401e-20 -0.03046
0.00787564 0 -0.0337773
0.0235255 0 -0.0255749
-0.00772481 4.33681e-19 -0.034118
-0.0330406 0 0.0122396
0.0332879 4.33681e-19 0.0117972
-0.0333606 2.1684e-19 0.0125382
-0.0233948 -8.67362e-19 -0.0268943
0.0336536 0 0.012171
0.0346237 2.1684e-19 0.00936863
-0.0346626 -2.1684e-19 0.00989479
5.79873e-05 1.807e-20 -0.0378891
0.0312965 7.22801e-20 -0.0218455
-0.0311433 0 -0.0229178
-0.0390193 0 -0.00156665
0.0391935 -1.807e-19 -0.00186273
-0.0381468 1.4456e-19 -0.00944956
-0.0389377 0 0.00616431
0.0391748 -2.1684e-19 0.00444132
0.039142 2.1684e-19 0.00665929
0.0391963 -7.22801e-20 -0.00951071
0.015678 -3.61401e-20 -0.0376699
0.0234882 -4.33681e-19 -0.0336314
-0.0155725 -3.61401e-20 -0.038258
-0.0379996 0 -0.0170081
-0.0233795 4.33681e-19 -0.0345719
0.0391718 4.33681e-19 -0.0163177
0.0078662 -4.33681e-19 -0.0417652
-0.00774979 -8.67362e-19 -0.0420222
0.0313021 3.61401e-20 -0.0296718
-0.0311972 3.61401e-20 -0.0309365
0.0437374 0 0.00929172
-0.0436203 -2.1684e-19 0.0100544
4.40842e-05 0 -0.0458684
-0.0441645 8.67362e-19 -0.0131697
0.0446788 0 0.0119989
0.0450439 0 0.0116251
-0.0449381 2.1684e-19 0.0125565
-0.0466368 8.67362e-19 0.00286316
0.0391134 0 -0.0256174
-0.0452347 -2.1684e-19 0.012281
0.0469785 -4.33681e-19 0.00204148
-0.0468662 0 -0.00621121
0.0469785 -4.33681e-19 -0.00585833
-0.0390215 0 -0.0273976
0.0234815 4.33681e-19 -0.0416254
0.0469536 0 0.0111577
0.0156669 -1.807e-20 -0.04569
-0.0468371 0 0.0119074
-0.0233838 -4.33681e-19 -0.0423606
0.0469511 4.33681e-19 0.0120003
-0.0468437 0 0.0125273
-0.0155835 3.61401e-20 -0.0461389
0.0469479 -4.33681e-19 -0.0133452
0.0312953 3.61401e-20 -0.0375856
-0.0312058 1.807e-20 -0.0386643
-0.0484241 0 0.012225
0.0488558 0 0.0116306
-0.0487324 -2.1684e-19 0.012497
0.00785517 -4.33681e-19 -0.0497792
-0.00776557 8.67362e-19 -0.0499733
0.0492097 -4.33681e-19 0.011997
-0.0498686 4.33681e-19 0.0100733
0.0500966 6.50521e-19 0.00930639
0.050899 0 0.00431535
0.0391025 0 -0.0336186
0.0469135 0 -0.0220115
-0.0467018 -3.61401e-20 -0.0234239
-0.0390131 0 -0.0350342
3.38505e-05 3.61401e-20 -0.0538585
-0.0512022 0 -0.0175777
-0.054201 3.61401e-20 -0.00149426
-0.0534592 -2.1684e-19 -0.00987976
-0.0542603 4.33681e-19 0.0061529
0.0548491 -1.4456e-19 -0.00198023
0.0234741 4.33681e-19 -0.0496601
0.0547741 0 0.00653115
0.0312877 0 -0.0456027
-0.0233932 0 -0.0502255
0.0469174 -3.61401e-20 -0.029745
0.0548247 -1.4456e-19 -0.0096559
0.0156579 -3.61401e-20 -0.053718
-0.0312137 -1.807e-20 -0.0464534
-0.0155926 -1.807e-20 -0.0540591
-0.0468315 -5.42101e-20 -0.0314451
0.0390979 -4.33681e-19 -0.041585
0.0547886 1.4456e-19 -0.0164164
-0.0390158 0 -0.0427316
0.00784598 -4.33681e-19 -0.0577852
-0.00777652 0 -0.0579326
0.0588686 -4.33681e-19 0.00411351
-0.0589488 2.1684e-19 0.00985395
0.0469137 -1.807e-20 -0.0376053
0.0595582 2.1684e-19 0.00924969
0.0547318 -4.33681e-19 -0.0257431
-0.0468408 1.807e-20 -0.039098
-0.0546429 -4.33681e-19 -0.0279938
-0.0602611 2.1684e-19 0.0124037
0.0604206 2.1684e-19 0.0118249
-0.0616439 0 0.0027911
-0.0605866 0 0.0121041
2.59749e-05 9.03502e-21 -0.0618381
0.0607718 4.33681e-19 0.0114631
0.0312806 -1.807e-20 -0.0536388
-0.0619804 0 -0.00528884
0.0234672 0 -0.0576878
-0.0312208 9.03502e-21 -0.0542966
0.06261 0 0.00189917
-0.0234022 0 -0.0581209
0.0626023 -4.33681e-19 -0.00599037
0.0390931 0 -0.0496103
-0.0622721 0 0.0117006
-0.0622853 4.33681e-19 0.0123711
0.0625932 4.33681e-19 0.0110071
0.0156506 -2.71051e-20 -0.061729
0.0625913 -4.33681e-19 0.0118214
-0.0390224 8.67362e-19 -0.0505101
-0.0155999 -9.03502e-21 -0.0619874
0.0625645 -4.33681e-19 -0.0135243
-0.0621665 7.22801e-20 -0.0156893
0.0547224 0 -0.033693
-0.0546496 0 -0.0355218
-0.0640855 0 0.0120074
0.0643989 0 0.0114545
0.0469085 -1.807e-20 -0.0455918
-0.0645451 -4.33681e-19 0.0122964
0.0647381 -4.33681e-19 0.0118066
-0.0653819 2.1684e-19 0.00971543
0.0655265 -2.1684e-19 0.00926891
-0.0468454 -1.807e-20 -0.0467946
0.00783855 0 -0.065769
-0.00778486 8.67362e-19 -0.0658808
0.066223 4.33681e-19 0.00400193
0.0625328 0 -0.022217
0.0663849 0 -0.000122902
0.0664665 0 -0.00401655
0.0663749 4.33681e-19 -0.00796244
-0.0624031 0 -0.0243837
-0.0684482 3.61401e-19 -0.00137438
0.0547176 -4.33681e-19 -0.0416162
0.0312743 0 -0.0616614
0.0625366 3.61401e-20 -0.0298791
-0.031227 1.807e-20 -0.0621647
-0.0546502 8.67362e-19 -0.0431184
0.0390881 0 -0.0576383
-0.0690391 -1.4456e-19 -0.00941181
0.0234611 0 -0.0656911
1.98301e-05 0 -0.0697955
-0.02341 0 -0.0660212
0.0680567 4.33681e-19 -0.016699
-0.0390296 8.67362e-19 -0.0583357
-0.0624764 -3.61401e-20 -0.0320317
0.0704147 -4.33681e-19 -0.00212759
-0.070377 7.22801e-20 0.00628673
0.0704044 -4.33681e-19 0.00638664
0.046903 -5.42101e-20 -0.0536141
0.0704446 -5.78241e-19 -0.0110311
0.0156447 1.807e-20 -0.0697116
-0.0156058 9.03502e-21 -0.0699066
-0.0468501 1.807e-20 -0.0545569
0.0625342 1.807e-20 -0.0376851
-0.0703553 0 -0.0206487
0.0547137 -8.67362e-19 -0.0496146
-0.0624771 9.03502e-21 -0.0395433
0.00783262 0 -0.0737252
-0.00779135 0 -0.0738096
-0.0546532 -4.33681e-19 -0.0508098
0.0746484 -6.50521e-19 -9.52164e-05
0.0745729 -2.1684e-19 -0.00420408
0.0747995 4.33681e-19 0.00380443
-0.0747522 8.67362e-19 -0.00509123
0.0703507 -8.67362e-19 -0.0259036
0.0746586 4.33681e-19 -0.00792375
-0.0756133 0 0.00198615
-0.0702996 4.33681e-19 -0.0285822
0.0754303 4.33681e-19 0.00923154
0.0743657 4.33681e-19 -0.0156843
0.031269 -1.807e-20 -0.069656
0.0390834 -4.33681e-19 -0.0656463
-0.0755326 -4.33681e-19 0.0117887
-0.0312322 0 -0.0700382
-0.0390363 8.67362e-19 -0.0661816
-0.0760732 0 0.011315
0.0761916 -2.1684e-19 0.0116235
0.023456 -4.33681e-19 -0.0736639
0.0765201 0 0.0112815
0.0625302 1.807e-20 -0.0456313
0.0468977 -9.03502e-21 -0.061632
-0.0234163 0 -0.0739139
1.50353e-05 0 -0.0777276
-0.0468548 0 -0.0623602
0.0703435 0 -0.0338096
0.0782313 0 0.00176433
-0.0624776 -1.807e-20 -0.0471414
0.0782189 0 -0.0061263
-0.0702906 4.33681e-19 -0.0359874
0.0782239 0 0.0108453
0.0782225 0 0.0116093
0.01564 -4.51751e-21 -0.0776636
-0.0785413 -4.33681e-19 0.0106837
-0.0156104 1.35525e-20 -0.0778102
0.0781791 4.33681e-19 -0.0137543
0.0547098 8.67362e-19 -0.0576284
-0.0786045 0 0.0116907
-0.0778833 1.807e-20 -0.0165861
-0.0546581 0 -0.0585638
0.0799097 0 0.0112648
0.0802275 0 0.0115971
0.0781526 -7.22801e-20 -0.0224563
0.0809283 2.1684e-19 0.00924407
0.0815548 0 0.00370326
0.0816615 0 -7.71597e-05
0.0703393 -4.33681e-19 -0.0416875
-0.0810473 0 0.0112932
0.0817189 4.33681e-19 -0.00432931
0.0816269 0 -0.00792566
0.00782788 0 -0.0816536
-0.00779646 0 -0.0817171
-0.0821881 1.4456e-19 -0.00242121
-0.0783494 1.4456e-20 -0.0250895
-0.0817597 0 -0.00997125
0.0625257 -1.807e-20 -0.0536284
-0.0819357 4.33681e-19 0.00867046
-0.0816054 0 0.0118095
-0.0702847 4.33681e-19 -0.0434935
0.0821528 -8.67362e-19 -0.0118484
-0.0624799 -4.51751e-21 -0.0548233
0.0390792 8.67362e-19 -0.0736257
0.0818671 0 -0.0157172
-0.0834858 1.73472e-19 0.00486303
0.0312646 1.35525e-20 -0.0776192
-0.0390421 0 -0.0740329
0.0781578 -1.807e-20 -0.03004
-0.0312364 0 -0.0779073
0.046893 -9.03502e-21 -0.0696272
-0.0468591 2.25875e-20 -0.0701833
-0.0783465 1.807e-21 -0.0325464
0.0234519 0 -0.0816061
-0.0234214 4.33681e-19 -0.0817944
0.054706 8.67362e-19 -0.0656302
1.13418e-05 0 -0.0856352
-0.0546636 4.33681e-19 -0.0663528
0.0860349 -2.1684e-19 -0.00225115
0.0703359 0 -0.049653
0.0860328 2.1684e-19 0.00625408
0.0860212 -4.33681e-19 -0.0100616
0.0781563 -1.807e-20 -0.0377922
-0.0702846 4.33681e-19 -0.0511057
0.0156364 -9.03502e-21 -0.0855867
-0.015614 -4.51751e-21 -0.0856965
0.0625211 -9.03502e-21 -0.061632
0.0859776 -4.33681e-19 -0.0185236
-0.0785689 9.03502e-22 -0.0399633
-0.0624832 4.51751e-21 -0.0625616
-0.0859042 -8.67362e-19 -0.0212544
0.0859704 0 -0.0260744
0.00782419 8.67362e-19 -0.0895567
-0.0078004 -8.67362e-19 -0.0896043
[...]
POINT_DATA 18239
FIELD attributes 1
p 1 18239 float
-72.5735 -73.6944 -74.1294 -71.6821 -73.4862 -70.4224 -72.5221 -71.0727 -72.0099 -75.8327
-72.4204 -73.7186 -71.345 -72.0373 -72.526 -71.2522 -78.7682 -69.4047 -74.6295 -76.0577
-69.9831 -76.8122 -71.196 -69.1143 -69.0612 -76.3017 -75.279 -78.0502 -75.3538 -68.8588
-75.9914 -68.8228 -76.0709 -79.6112 -73.458 -68.4001 -68.2945 -76.4079 -76.5339 -76.5261
-68.2049 -77.9045 -78.1499 -69.7738 -68.8921 -77.5338 -67.9257 -79.9572 -70.1851 -72.6192
-74.8234 -76.4484 -78.6639 -69.0229 -80.9136 -68.2938 -78.667 -75.9514 -80.3209 -81.8323
-68.0769 -70.2011 -68.156 -79.3131 -71.0276 -79.3636 -68.4537 -84.1865 -79.9323 -68.3468
-72.8063 -80.0426 -69.0527 -77.0181 -75.6408 -68.2083 -76.569 -80.1936 -68.412 -80.2962
-77.2612 -68.3811 -69.5487 -80.1558 -75.8196 -68.6177 -81.899 -82.5054 -72.1096 -84.6671
-80.7578 -70.5944 -70.8792 -71.5051 -73.9954 -72.2637 -76.8083 -85.2203 -77.7299 -70.2047
-75.056 -75.9448 -70.7501 -78.0059 -69.5351 -81.1686 -75.3201 -77.9477 -68.3977 -68.4287
-81.5848 -81.9098 -70.4018 -81.5558 -70.0935 -74.1417 -71.103 -79.4277 -72.9512 -68.4087
-74.1256 -81.8834 -76.9655 -68.2798 -82.0149 -76.1109 -70.9549 -72.4277 -77.2592 -81.8086
-68.1607 -81.889 -74.7994 -75.4537 -68.0796 -80.8354 -68.361 -69.1356 -72.1254 -71.2725
-79.2822 -77.5759 -75.0368 -76.7813 -79.0896 -73.6941 -80.5913 -69.4765 -73.6613 -68.0161
-73.0538 -76.0688 -72.2111 -70.736 -74.3223 -76.4312 -75.5516 -76.5548 -72.341 -71.7847
-76.765 -74.7168 -75.1687 -68.392 -85.9898 -72.8423 -67.857 -72.8177 -76.2087 -74.236
-88.5645 -67.4953 -84.9463 -88.8592 -74.8639 -67.5371 -73.7108 -75.3449 -74.098 -75.7138
-68.7715 -75.513 -69.8312 -73.2428 -90.9322 -91.3493 -67.6797 -74.4508 -67.5633 -75.9258
-75.176 -71.3484 -72.6728 -73.5037 -74.9376 -94.9121 -67.6136 -73.247 -96.0261 -67.5867
-90.576 -68.0689 -75.9581 -74.6475 -74.9202 -68.6679 -72.4414 -68.9525 -69.4836 -69.9313
-76.3902 -83.7962 -73.3882 -74.1292 -73.195 -75.2281 -75.5668 -73.8308 -80.7289 -74.3354
-74.7219 -75.1022 -71.5954 -75.3495 -76.6967 -69.1842 -92.9472 -68.5898 -73.858 -70.6407
-74.5214 -74.8745 -75.53 -73.6543 -78.6705 -74.0099 -76.5591 -74.6033 -74.7161 -75.5813
-69.9326 -70.1534 -69.6997 -88.4175 -72.6982 -70.5891 -96.4959 -79.3145 -69.4141 -71.6644
-74.412 -74.2473 -109.362 -74.8525 -74.9495 -109.214 -69.163 -74.4977 -69.2775 -74.0206
-74.2746 -74.7601 -74.6108 -75.1123 -73.7168 -70.5578 -76.2642 -71.0483 -78.3709 -69.7761
-69.6755 -74.5698 -107.218 -74.6302 -71.863 -74.3433 -108.117 -85.6707 -75.2664 -70.1495
-70.2021 -72.5313 -70.6718 -71.2542 -71.3219 -73.9977 -106.562 -71.5772 -71.6301 -74.5676
-74.5565 -96.9659 -82.0667 -92.4285 -74.5042 -106.734 -106.119 -77.3742 -72.1266 -75.7876
-74.5656 -72.1919 -106.97 -74.617 -74.5996 -73.3319 -74.5356 -74.6141 -74.7309 -80.3331
-74.6102 -74.4889 -74.6734 -74.5173 -74.8852 -72.2861 -74.6818 -72.1816 -72.4398 -74.0058
-76.535 -74.5983 -74.4299 -74.8254 -72.6294 -78.6282 -75.2516 -87.019 -72.9549 -74.5282
-74.4171 -74.7939 -74.5615 -72.6608 -72.7324 -74.8831 -74.2946 -83.177 -72.6272 -72.6079
-74.9777 -72.804 -74.3764 -74.7626 -74.2646 -77.2821 -108.812 -72.7021 -75.7669 -74.9684
-72.3512 -74.4901 -73.9075 -74.6873 -72.1239 -74.2576 -108.619 -72.1742 -109.179 -80.3423
-74.4325 -103.968 -75.1315 -72.9035 -93.445 -73.0778 -74.7328 -72.3496 -72.2706 -74.6117
-75.0976 -72.9497 -74.257 -88.3976 -110.021 -110.468 -74.391 -76.2211 -72.4496 -75.3044
-72.4524 -78.3505 -72.9683 -75.0876 -72.7888 -109.778 -73.1679 -73.2383 -73.3188 -73.3505
-83.9814 -108.295 -109.39 -75.0862 -74.959 -74.4893 -74.2959 -74.0523 -74.018 -75.2037
-73.2523 -73.1616 -73.6734 -74.1221 -74.8676 -74.0263 -75.1705 -81.1288 -75.4508 -75.3876
-74.2563 -76.8671 -74.7421 -75.3508 -74.0578 -74.4596 -74.3569 -73.7011 -75.5782 -73.5381
-92.3731 -78.8633 -73.8017 -106.078 -74.4685 -74.6143 -88.9165 -74.1052 -72.9799 -75.5566
-84.2639 -75.7154 -75.1364 -75.2403 -75.7769 -73.7568 -75.3881 -73.3798 -77.2025 -75.0819
-73.7723 -73.7753 -74.6208 -74.4532 -74.1894 -81.7329 -75.5925 -74.9401 -73.8168 -73.8328
-73.897 -72.3236 -73.8384 -74.1258 -74.1702 -74.4353 -72.1889 -104.635 -73.6384 -75.7992
-105.615 -74.773 -73.8782 -79.2902 -73.9448 -75.7311 -75.9622 -105.697 -73.4203 -73.4628
-75.9181 -74.8336 -75.9142 -100.005 -75.8425 -74.2731 -74.1045 -74.4516 -75.1003 -90.4326
-73.7045 -105.128 -73.6533 -105.483 -76.0331 -71.938 -74.5886 -73.954 -73.9998 -77.4798
-85.3823 -73.7752 -75.3532 -75.5323 -73.7931 -71.289 -73.4918 -73.4621 -104.69 -73.8593
-76.1477 -75.1635 -104.126 -74.4345 -74.2096 -74.1193 -74.7528 -73.5594 -75.7554 -104.335
-81.7084 -73.4571 -74.8686 -75.8813 -76.2615 -72.9986 -73.3994 -74.9787 -71.894 -74.0942
-73.6123 -75.9786 -76.1 -73.4895 -79.426 -74.4447 -73.9733 -74.9447 -76.2359 -73.4767
-74.6966 -73.7344 -77.4678 -76.5108 -76.3134 -74.164 -105.88 -74.5348 -93.2213 -74.2942
-74.9757 -75.4565 -74.038 -86.5019 -74.532 -73.7762 -76.4929 -68.0526 -75.8878 -75.6353
-73.1739 -75.4161 -73.4922 -73.2395 -75.8801 -73.1282 -81.6876 -75.9993 -71.3837 -76.1227
-74.436 -73.9292 -73.1019 -79.3648 -76.757 -74.9789 -73.3921 -74.7085 -73.6651 -74.1085
-76.7775 -75.289 -76.3967 -73.206 -76.5841 -71.4597 -73.0302 -74.4835 -97.1767 -73.4378
-97.2562 -75.7458 -75.6742 -70.319 -74.8524 -76.4725 -76.7923 -77.3245 -96.9186 -75.7549
-76.6725 -75.8665 -75.9337 -72.9808 -75.7712 -89.8509 -95.299 -74.1343 -95.5764 -76.492
-77.4179 -75.7804 -84.2375 -70.4377 -77.0614 -76.3944 -77.048 -76.4031 -75.6286 -75.973
-72.9326 -74.5366 -73.7207 -72.8188 -73.3801 -75.4498 -72.9541 -73.9342 -80.7431 -76.2303
-75.3353 -72.7755 -73.1084 -76.6874 -76.9811 -76.7653 -96.006 -71.1488 -72.8841 -93.149
-76.8019 -76.7023 -77.7871 -76.874 -77.1081 -78.4921 -77.9909 -96.1095 -76.5187 -74.6395
-72.6492 -73.7483 -75.3073 -75.0224 -73.285 -73.8961 -76.5176 -72.9138 -77.4128 -76.813
-72.5491 -73.1929 -77.2938 -75.6715 -72.8038 -77.3396 -72.7855 -76.074 -73.6961 -75.1716
-80.0288 -77.1347 -72.4151 -76.0278 -72.5043 -77.9114 -78.6439 -77.9542 -77.0505 -80.9305
-75.5091 -72.8286 -78.7181 -74.5025 -73.6217 -74.1041 -77.6639 -76.598 -77.7815 -72.3124
-72.5729 -75.9388 -72.9589 -76.8749 -77.4648 -79.828 -76.4246 -72.2784 -78.0814 -72.2894
-76.9089 -72.2743 -72.1708 -77.7829 -75.1441 -73.2499 -77.4255 -76.7252 -73.1443 -77.4253
-74.2327 -77.2456 -77.5387 -72.0162 -78.0506 -78.9822 -78.7845 -79.6256 -80.2728 -81.6027
-77.8486 -72.3256 -72.0524 -77.361 -79.0803 -78.2198 -76.1009 -72.3246 -79.2884 -69.6495
-73.3483 -72.5431 -76.4802 -79.3031 -72.143 -72.1402 -71.4822 -73.3105 -74.0226 -77.5883
-76.6547 -75.5442 -79.2167 -72.6437 -80.0177 -71.9525 -74.3695 -71.8524 -76.1304 -79.4642
-79.4933 -76.882 -71.8922 -74.7106 -78.2842 -79.5808 -71.7416 -79.6197 -72.6488 -79.519
-78.2493 -79.9557 -79.3926 -79.3175 -80.1995 -73.6023 -78.5269 -71.8015 -71.9536 -77.9813
-77.3298 -82.9277 -75.0265 -73.0359 -71.6543 -71.607 -77.2833 -57.8816 -73.1442 -78.7108
-79.7655 -82.9414 -56.5342 -72.0162 -79.9478 -76.9162 -71.7343 -77.6722 -72.5095 -71.4926
-78.7187 -76.705 -71.7869 -78.3864 -71.4455 -71.3446 -79.826 -64.5611 -79.0485 -71.2978
-68.4709 -79.7992 -80.6824 -80.0841 -71.9207 -71.5021 -72.486 -78.0712 -74.4753 -73.4909
-71.226 -77.3878 -71.6174 -71.3003 -86.2776 -79.8653 -47.1885 -86.5935 -71.4016 -71.7551
-78.8489 -88.3532 -71.0102 -79.2271 -83.5599 -71.0285 -78.4857 -70.953 -71.4304 -79.8737
-76.1616 -71.9603 -71.9593 -76.7328 -71.5641 -51.5547 -70.9383 -82.1659 -70.9199 -80.7877
-82.8042 -78.1269 -80.8607 -81.222 -81.4239 -70.8903 -77.8822 -50.5093 -70.9435 -84.6136
-71.0207 -80.9209 -75.5838 -72.3873 -81.0716 -79.3477 -81.0742 -78.9321 -77.442 -73.9061
-67.1119 -71.0886 -70.6272 -70.6315 -81.1036 -61.7752 -81.6316 -69.4923 -81.5126 -81.1029
-81.1127 -79.9278 -83.5756 -70.6627 -70.726 -70.5303 -81.1508 -78.5386 -81.163 -60.0847
-70.6061 -81.1937 -88.0443 -81.237 -81.4595 -81.8811 -82.0096 -70.4845 -77.9296 -70.7733
-86.5416 -74.9937 -72.859 -72.858 -80.9612 -83.6535 -70.4768 -84.0237 -70.278 -70.5548
-79.4121 -78.1708 -65.9813 -70.5316 -70.2678 -79.9586 -67.313 -83.0608 -78.9838 -70.1611
-70.302 -70.1888 -78.4469 -70.3947 -80.7773 -82.6441 -69.9568 -69.89 -67.6284 -82.7165
-68.0242 -81.7506 -70.4773 -83.3284 -79.9771 -69.637 -79.444 -69.9608 -69.8356 -82.0321
-84.484 -86.223 -69.0881 -78.4553 -80.6594 -70.2427 -69.6006 -79.0221 -78.1965 -86.0172
-70.3546 -69.9999 -69.6339 -69.4403 -82.7506 -76.7856 -71.2431 -81.6219 -76.1669 -69.2708
-76.1677 -71.6587 -71.658 -69.3199 -79.9759 -77.4837 -70.6783 -69.5448 -69.2486 -83.7671
-80.6004 -79.4671 -69.6883 -69.355 -69.0273 -68.3904 -83.9279 -83.6081 -81.963 -81.7837
-82.8305 -82.9322 -81.4125 -79.0996 -81.0731 -69.6977 -83.1386 -81.0463 -69.0623 -81.0354
-68.2739 -78.2082 -81.7741 -70.1182 -67.5069 -68.8461 -82.8141 -68.6297 -80.9801 -80.9748
-66.3105 -83.5841 -68.9308 -80.901 -80.8857 -80.9204 -85.4276 -79.9662 -81.5593 -80.5483
-82.7516 -81.8676 -82.898 -69.2872 -69.0927 -68.5711 -82.52 -83.5621 -79.4913 -84.1749
-81.2639 -68.6138 -74.8868 -72.6178 -83.7506 -68.8186 -66.7865 -68.5523 -67.2419 -83.2622
-68.3121 -79.0207 -82.2313 -69.5206 -68.4299 -69.2131 -80.499 -68.8581 -83.6124 -79.9586
-81.1584 -69.0501 -69.8993 -68.5987 -68.1023 -79.4699 -69.457 -68.2707 -82.2214 -80.4554
-81.9829 -83.1319 -83.1095 -67.5446 -69.0833 -68.2281 -83.8667 -67.9274 -84.793 -69.0775
-67.8282 -84.115 -80.4544 -81.0676 -67.8855 -77.4674 -68.6415 -70.4036 -68.3963 -82.8058
-82.487 -79.9361 -68.7877 -67.7632 -81.8132 -67.6147 -68.057 -78.208 -69.7879 -84.0464
-71.163 -67.3335 -82.6021 -68.5763 -71.3495 -67.6183 -80.9855 -83.3865 -83.2127 -68.2129
-83.4935 -81.8852 -80.4214 -81.6651 -82.5695 -82.6721 -81.6718 -67.1998 -67.8898 -70.7893
-81.1715 -73.6863 -81.1596 -81.8408 -81.168 -72.8887 -82.6086 -68.9862 -81.2129 -81.2098
-72.8301 -79.8823 -78.9759 -83.1955 -81.243 -81.2494 -69.1673 -68.668 -81.2544 -68.0815
-81.872 -82.6021 -81.9167 -82.6115 -82.4153 -84.5199 -83.2854 -68.4829 -67.4783 -67.1345
-67.0478 -83.1023 -83.8075 -83.2618 -77.88 -66.9021 -80.9108 -69.636 -68.041 -81.5511
-79.7413 -67.7444 -83.7853 -83.1871 -80.3617 -66.9599 -66.6212 -82.2616 -67.3506 -84.2041
-79.7821 -68.505 -66.4393 -83.0076 -66.8542 -81.4373 -83.8676 -67.6074 -80.8372 -76.0727
-69.8303 -67.8547 -82.5025 -82.1401 -66.3396 -82.1208 -82.5896 -77.3797 -70.0706 -68.7215
-86.0874 -67.2282 -83.3516 -84.434 -66.5941 -84.3009 -82.8574 -83.7688 -66.2177 -76.1038
-71.2296 -66.7732 -66.2686 -83.682 -65.8975 -81.3301 -83.1968 -81.9899 -67.1183 -84.9256
-80.7506 -78.9103 -83.6321 -68.8747 -67.7452 -65.6379 -66.2214 -82.7037 -79.9092 -66.682
-71.7008 -83.4764 -84.3442 -77.7704 -65.5826 -84.0378 -67.2836 -83.9337 -83.7216 -83.702
-83.7897 -83.4649 -83.7941 -69.4075 -71.5382 -71.5146 -83.7999 -71.5382 -66.1754 -83.8506
-67.4789 -83.8592 -81.8672 -83.908 -83.9051 -83.8901 -84.1778 -83.8814 -84.3457 -67.0195
-81.2354 -66.3467 -65.5252 -85.4991 -82.5565 -79.7053 -71.0003 -68.2584 -66.5964 -65.2085
-84.3355 -84.4593 -67.1989 -85.2244 -74.8197 -72.4212 -64.984 -83.3039 -84.2568 -66.1341
-65.539 -66.9471 -85.2628 -64.8206 -65.9652 -81.7539 -85.8629 -66.9015 -82.4148 -85.4386
-66.5248 -64.7557 -84.0769 -65.5309 -83.138 -66.0904 -80.5895 -85.1103 -67.508 -85.2411
-64.7768 -66.5392 -65.4077 -66.643 -85.1862 -85.1273 -65.8675 -61.0549 -83.9177 -85.7136
-65.5421 -64.0967 -82.2865 -86.3611 -85.0151 -81.6562 -66.8268 -64.822 -63.918 -82.9743
-66.1704 -66.0463 -69.4962 -85.861 -66.6235 -85.2556 -63.8986 -84.8202 -83.7368 -85.5372
-65.5385 -86.5799 -64.8831 -63.8413 -87.1316 -82.1635 -85.8987 -82.8138 -85.283 -83.7062
-66.0152 -81.5273 -63.9545 -66.6983 -85.7407 -83.287 -84.6105 -85.1813 -84.2017 -64.9341
-83.5551 -86.348 -63.5285 -86.2965 -65.5442 -82.9196 -63.8471 -73.5626 -63.1745 -85.851
-64.1165 -63.3907 -85.9694 -84.5013 -64.04 -63.13 -86.4141 -63.3102 -82.7131 -84.8062
-87.854 -62.6726 -82.5867 -86.4981 -62.4799 -86.6149 -62.6227 -84.4043 -64.9796 -87.6383
-80.4569 -67.3318 -85.6058 -82.6575 -62.0147 -66.1072 -62.7225 -64.1806 -62.123 -61.7632
-83.3706 -65.5194 -87.3561 -62.8767 -82.3219 -86.424 -85.5872 -88.2107 -85.3408 -87.2287
-84.1906 -77.3291 -69.8093 -64.2797 -88.0794 -65.0131 -63.0539 -82.5022 -78.758 -68.477
-86.7863 -65.9364 -83.183 -63.264 -85.1063 -64.3824 -63.312 -60.2192 -87.0136 -66.142
-62.0486 -83.98 -81.3433 -66.5706 -65.0317 -87.9126 -86.5503 -76.0365 -71.0246 -86.5283
-61.1056 -63.4598 -86.5913 -89.3161 -61.318 -81.839 -87.125 -84.8559 -88.3524 -64.4546
-61.7323 -86.216 -82.9969 -63.6429 -88.6296 -83.7737 -65.0365 -62.0183 -89.519 -89.3537
-87.8026 -54.1123 -85.9062 -80.2558 -67.0855 -84.6143 -62.3906 -63.7923 -64.5145 -53.2709
-52.9735 -87.5918 -62.6641 -82.2198 -55.9123 -88.2766 -65.8304 -88.2308 -83.5746 -53.5411
-51.8831 -57.6557 -65.0435 -51.7604 -87.9323 -88.2846 -85.6083 -59.3074 -63.9183 -88.3132
-88.3915 -90.1576 -84.3799 -59.7035 -64.5485 -87.1514 -62.9501 -90.0997 -74.7432 -72.2665
-51.2455 -60.4057 -50.306 -81.5066 -51.1004 -69.7086 -89.6072 -61.0159 -85.3144 -64.0171
-86.7648 -83.3986 -63.1587 -90.3941 -89.2696 -90.3181 -61.5135 -84.1612 -89.0471 -88.4416
-88.545 -86.412 -61.9409 -63.3469 -85.0338 -64.09 -36.7394 -89.7421 -47.7769 -52.0299
-88.2545 -56.4331 -83.1648 -65.0355 -62.285 -89.7706 -57.5366 -83.9571 -91.5541 -86.0588
-63.4884 -58.7401 -81.9578 -65.7416 -84.7657 -87.7542 -64.1585 -90.6641 -37.2891 -62.5759
-59.7935 -37.9477 -36.7312 -90.7844 -60.4955 -85.7284 -63.6103 -87.3123 -34.9307 -62.8055
-89.8597 -92.11 -91.9825 -61.1354 -84.5142 -89.4578 -61.5653 -90.3239 -86.8924 -35.1609
-62.9947 -85.4127 -49.4842 -63.6865 -73.5049 -42.9631 -35.4467 -53.8988 -36.6325 -90.5838
-90.5785 -90.5432 -90.5861 -90.5906 -90.6021 -56.6022 -90.6123 -92.9872 -88.8152 -91.8659
-61.9558 -57.8175 -82.8437 -65.0173 -84.2712 -92.9472 -78.6389 -68.2846 -64.2569 -58.9385
-86.494 -90.8755 -77.2539 -69.6015 -63.1456 -92.2597 -92.1426 -88.285 -85.109 -59.8004
-62.2363 -31.2707 -93.5643 -91.5551 -60.4576 -93.3003 -30.6661 -80.8973 -86.1241 -63.2637
-87.7872 -62.4787 -90.744 -60.9896 -80.0674 -66.9427 -84.8297 -38.0239 -90.085 -75.9985
-70.934 -46.1349 -51.7434 -61.4017 -55.591 -87.3116 -62.6637 -93.0524 -85.7796 -56.7862
-63.3436 -95.1989 -58.0696 -89.3902 -61.7418 -83.8366 -26.5619 -64.2869 -93.731 -59.1127
-86.8773 -62.8195 -93.3923 -59.7764 -88.7836 -85.4651 -62.0085 -63.4365 -92.1824 -60.4096
-95.7934 -70.0654 -95.4597 -86.4781 -35.0056 -62.9383 -88.2147 -91.4769 -62.2278 -60.8403
-34.1397 -81.5478 -65.6073 -92.9181 -85.2091 -51.4459 -47.873 -54.6583 -93.1528 -43.2386
-90.5907 -56.6357 -61.241 -96.4615 -57.6013 -93.1512 -87.6905 -96.2939 -62.404 -43.8174
-86.1187 -58.5548 -89.8703 -61.5319 -95.1469 -59.3109 -83.5132 -64.272 -84.8891 -63.5121
-50.2403 -96.735 -94.1551 -51.6673 -87.2127 -62.5442 -59.9039 -96.6208 -89.1921 -61.7858
-85.803 -92.9987 -60.4019 -92.0335 -86.7752 -62.6688 -88.5682 -60.7951 -61.9823 -53.2418
-54.6714 -56.7518 -52.8863 -59.0413 -95.2329 -57.3183 -91.0928 -99.0594 -61.1273 -58.1023
-88.0051 -97.1294 -62.15 -58.9048 -86.3767 -80.4924 -96.3423 -90.2789 -59.4307 -61.3912
-84.4485 -63.5827 -94.709 -83.1168 -64.1884 -59.9875 -87.4904 -62.2686 -99.2611 -99.0555
-89.5329 -58.4769 -61.6117 -86.0036 -68.1933 -78.5796 -62.8494 -93.6296 -60.3632 -57.8948
-95.4628 -54.5781 -92.4387 -53.9896 -56.0111 -60.7321 -87.0138 -88.8636 -79.9053 -66.7851
-96.2207 -55.0507 -61.7915 -57.1701 -100.277 -55.7686 -57.7922 -100.419 -58.5067 -91.4728
-96.2316 -61.0021 -98.4038 -59.1104 -88.2647 -56.0666 -61.937 -86.5716 -56.2442 -96.9266
-100.711 -59.6028 -90.5812 -100.475 -61.2436 -95.3329 -60.0333 -85.3698 -62.9425 -87.7271
-62.0403 -89.7903 -61.4343 -94.0053 -81.3058 -65.5194 -60.3772 -55.0284 -55.6666 -55.2182
-57.0101 -98.7293 -56.0496 -57.4806 -92.7723 -60.6757 -103.578 -87.2471 -89.091 -62.1622
-61.5991 -58.1557 -100.744 -58.84 -91.7193 -60.9152 -99.4134 -59.2503 -88.4724 -61.7301
-97.2522 -86.8613 -59.733 -90.7786 -61.1186 -104.127 -103.753 -84.8497 -62.9966 -95.7472
-55.5812 -99.1746 -60.0436 -55.34 -87.932 -89.9548 -61.2862 -94.2096 -55.7181 -60.3664
-86.3835 -55.1432 -56.8129 -62.2868 -100.602 -54.8084 -57.5906 -54.6719 -105.323 -57.9886
-92.9706 -82.751 -104.95 -64.2126 -60.6004 -58.5597 -89.2317 -87.4713 -61.4238 -80.2296
-101.743 -59.0435 -100.654 -54.5899 -54.6315 -91.8541 -99.6431 -60.8137 -106.11 -59.4401
-105.484 -88.5962 -61.5456 -97.5293 -59.8001 -90.8895 -60.9822 -95.8023 -60.0868 -85.7582
-62.3883 -88.0414 -55.6774 -56.7316 -54.8894 -57.8587 -94.2639 -90.049 -103.664 -61.129
-60.3422 -54.3238 -57.894 -109.482 -58.3353 -104.47 -58.8903 -92.9724 -60.5469 -102.369
-89.3145 -61.2366 -87.5314 -61.7236 -59.1814 -99.5556 -59.5882 -91.8446 -60.7227 -109.394
-108.6 -103.924 -97.5721 -59.8308 -88.6662 -54.3945 -54.3314 -90.8767 -60.8684 -95.6866
-60.1037 -84.1138 -56.4781 -65.4611 -63.0425 -81.2023 -55.5904 -57.4345 -105.654 -54.6282
-58.0863 -110.192 -54.267 -88.0964 -58.259 -94.1923 -60.2966 -90.0421 -60.9886 -108.713
-58.6875 -86.6922 -61.8276 -104.384 -59.067 -54.3309 -105.535 -92.8748 -54.392 -60.476
-101.801 -111.334 -59.3744 -89.3228 -61.0751 -109.711 -99.2114 -59.6642 -91.7613 -60.6184
-97.1451 -59.8899 -88.7065 -61.1776 -90.8078 -60.7437 -95.3556 -56.4474 -57.179 -60.0965
-108.486 -55.513 -58.248 -82.4992 -64.1372 -54.5321 -58.2218 -112.613 -58.5163 -86.1595
-61.8706 -93.873 -88.2341 -60.2603 -106.434 -58.9957 -89.9976 -60.8448 -104.292 -59.1913
-92.6 -60.4019 -101.009 -59.5308 -111.283 -113.09 -89.3135 -87.6695 -61.268 -98.7218
-59.7031 -108.413 -91.5228 -60.5195 -55.1072 -55.1091 -96.6083 -59.9196 -88.7504 -57.1734
-58.0475 -109.452 -56.3868 -112.869 -55.536 -58.5255 -90.6053 -60.617 -94.9401 -55.2338
-60.065 -58.5808 -110.651 -85.5678 -61.8487 -58.8918 -108.702 -105.62 -59.1742 -55.4132
-93.4878 -60.2027 -55.4883 -89.8251 -60.7016 -113.659 -102.858 -59.3896 -112.01 -86.9577
-61.3675 -83.7468 -63.0352 -99.9803 -92.2778 -60.3101 -59.6043 -89.1624 -97.7571 -59.7623
-112.866 -91.2454 -60.4057 -109.762 -95.8463 -59.914 -57.2143 -57.9458 -56.4905 -58.8149
-114.629 -56.1128 -58.7014 -88.5641 -60.8203 -58.8319 -90.371 -94.2727 -60.4737 -60.0316
-106.898 -59.2148 -118.922 -116.808 -104.885 -59.2882 -92.9339 -60.1341 -101.268 -89.6188
-59.5439 -115.664 -98.9366 -59.6365 -119.501 -91.8111 -60.2186 -57.0337 -96.7713 -88.9674
-59.7883 -87.6051 -60.8946 -57.0772 -90.8566 -60.2878 -118.997 -58.5701 -58.0995 -59.066
-119.338 -95.071 -59.8822 -57.536 -59.2609 -57.3751 -59.0415 -116.323 -119.335 -110.995
-114.555 -59.1702 -117.121 -93.5952 -90.0477 -59.976 -105.901 -60.3367 -118.87 -59.3285
-57.7947 -118.339 -57.931 -102.968 -85.0195 -61.9201 -59.4403 -92.3768 -60.0473 -99.868
-59.5773 -89.3824 -60.3948 -97.6156 -86.9065 -60.9331 -59.6667 -112.228 -91.3457 -60.1109
-95.6869 -59.7625 -88.8846 -113.658 -59.668 -59.5474 -59.1672 -59.9178 -58.8927 -90.4651
-59.3954 -60.1607 -94.1187 -59.8338 -132.573 -59.1968 -106.966 -59.4327 -63.0039 -83.6083
-88.2797 -60.441 -104.944 -59.374 -92.8012 -59.8971 -89.7364 -111.542 -100.814 -59.5525
-91.7108 -59.949 -98.4727 -59.5744 -89.2074 -96.2932 -59.6664 -59.1881 -90.803 -59.9911
-59.1405 -118.541 -119.263 -94.6184 -59.6431 -59.7125 -59.5192 -59.7597 -59.1624 -59.7299
-117.555 -59.1458 -59.3499 -59.079 -87.5139 -60.502 -116.533 -119.925 -59.3596 -108.125
-90.0461 -60.0249 -59.3589 -93.1939 -59.7641 -104.48 -59.1627 -59.3629 -59.2144 -59.424
-119.862 -117.834 -101.647 -59.4507 -92.0414 -59.8009 -89.4574 -98.721 -59.526 -86.0105
-60.9519 -96.6688 -59.5588 -91.0808 -59.837 -88.8353 -60.0618 -84.7173 -61.8707 -94.8598
-59.6072 -112.293 -90.3212 -59.8559 -59.6226 -59.8664 -59.9219 -59.5759 -59.5358 -106.897
-59.5353 -93.4088 -59.6383 -111.234 -59.2935 -110.949 -103.883 -59.513 -92.202 -59.6666
-102.186 -59.3733 -98.6956 -59.5022 -91.2147 -87.9603 -60.0852 -59.6882 -96.9266 -59.474
-89.5354 -94.997 -59.5198 -110.976 -113.633 -90.4186 -59.7036 -89.0676 -60.0889 -60.0902
-93.5382 -59.5295 -60.0346 -60.1236 -60.0352 -112.157 -59.9508 -60.1027 -60.1926 -112.835
-60.188 -89.8463 -59.7116 -59.5 -108.387 -92.2887 -59.547 -59.4204 -104.139 -60.4594