# vtk DataFile Version 2.0
track0
ASCII
DATASET POLYDATA
POINTS 996 float
-1.001 -0.05 0.0011
-1.00075 -0.0499924 0.00106851
-1.00051 -0.0499849 0.00103703
-1.00026 -0.0499773 0.00100556
-1.00001 -0.0499697 0.000974104
-0.999764 -0.0499621 0.000942726
-0.999425 -0.0499516 0.000899841
-0.999086 -0.0499411 0.000856839
-0.998747 -0.0499305 0.000813916
-0.998408 -0.0499199 0.000771072
-0.998069 -0.0499093 0.000728296
-0.995314 -0.0498228 0.000381576
-0.992559 -0.0497353 3.93132e-05
-0.989803 -0.0496467 -0.000298525
-0.987046 -0.049557 -0.000631971
-0.984295 -0.0494663 -0.000960446
-0.981186 -0.0493607 -0.00133049
-0.978076 -0.049258 -0.00169736
-0.974966 -0.0491543 -0.00206066
-0.971855 -0.0490496 -0.00242034
-0.968748 -0.048944 -0.00277594
-0.965631 -0.0488393 -0.00312913
-0.962514 -0.0487332 -0.00348276
-0.959397 -0.0486268 -0.00383761
-0.95628 -0.0485201 -0.00419354
-0.953162 -0.0484131 -0.0045496
-0.949918 -0.0482997 -0.00492083
-0.946674 -0.0481902 -0.0052938
-0.943429 -0.0480808 -0.0056653
-0.940185 -0.0479717 -0.00603533
-0.93694 -0.0478632 -0.00640221
-0.934397 -0.047774 -0.00667806
-0.931855 -0.0476902 -0.0069586
-0.929312 -0.0476066 -0.00723718
-0.92677 -0.0475232 -0.00751395
-0.924295 -0.0474421 -0.00778059
-0.923806 -0.047426 -0.00783262
-0.923317 -0.04741 -0.00788454
-0.922829 -0.047394 -0.00793633
-0.92234 -0.0473779 -0.00798801
-0.921851 -0.0473619 -0.00803955
-0.918724 -0.0472599 -0.00836923
-0.915597 -0.0471593 -0.00869599
-0.912469 -0.0470605 -0.0090205
-0.909341 -0.0469636 -0.00934278
-0.906216 -0.0468686 -0.00966251
-0.905223 -0.0468387 -0.00976326
-0.90423 -0.046809 -0.00986393
-0.903238 -0.0467793 -0.00996444
-0.902245 -0.0467496 -0.0100648
-0.901248 -0.0467198 -0.0101654
-0.89881 -0.046647 -0.0104109
-0.896371 -0.0465735 -0.0106521
-0.893932 -0.0464993 -0.0108884
-0.891493 -0.0464242 -0.0111192
-0.889038 -0.0463477 -0.0113448
-0.886177 -0.0462633 -0.0115996
-0.883318 -0.046175 -0.0118695
-0.880458 -0.0460899 -0.0121378
-0.877599 -0.0460049 -0.012406
-0.874738 -0.04592 -0.0126742
-0.871645 -0.0458363 -0.0129483
-0.868553 -0.0457466 -0.0132326
-0.865461 -0.0456586 -0.0135133
-0.862369 -0.0455722 -0.0137908
-0.859275 -0.0454874 -0.0140652
-0.856183 -0.0454171 -0.0143325
-0.853092 -0.0453361 -0.0146025
-0.85 -0.0452588 -0.0148697
-0.846908 -0.045185 -0.0151342
-0.843816 -0.0451153 -0.0153948
-0.841716 -0.0450748 -0.0155604
-0.839617 -0.0450332 -0.0157328
-0.837518 -0.0449943 -0.0159029
-0.835419 -0.0449582 -0.0160708
-0.833535 -0.0449283 -0.0162193
-0.832469 -0.0449126 -0.0163025
-0.831403 -0.0448972 -0.0163854
-0.830336 -0.0448822 -0.0164682
-0.82927 -0.0448674 -0.0165509
-0.828203 -0.044853 -0.0166335
-0.824769 -0.0448107 -0.0168994
-0.821333 -0.0447634 -0.0171605
-0.817897 -0.0447141 -0.0174129
-0.814461 -0.0446624 -0.017655
-0.811005 -0.0446073 -0.0178854
-0.808124 -0.0445786 -0.018076
-0.805245 -0.0445513 -0.0182929
-0.802366 -0.0445265 -0.0185105
-0.799487 -0.0445071 -0.0187261
-0.796607 -0.0444927 -0.0189401
-0.793496 -0.0444862 -0.0191394
-0.790388 -0.0444849 -0.0193639
-0.787278 -0.0444868 -0.0195825
-0.784169 -0.0444919 -0.0197954
-0.781059 -0.0444986 -0.0200053
-0.777967 -0.0445153 -0.0201914
-0.774876 -0.0445308 -0.0203909
-0.771784 -0.0445482 -0.0205856
-0.768692 -0.0445682 -0.0207738
-0.765599 -0.0445906 -0.0209557
-0.762479 -0.0446141 -0.0211146
-0.759361 -0.044647 -0.021287
-0.756242 -0.0446823 -0.0214528
-0.753123 -0.0447199 -0.0216122
-0.750003 -0.0447599 -0.0217653
-0.746878 -0.0447997 -0.0218979
-0.743754 -0.0448443 -0.0220413
-0.740629 -0.0448909 -0.0221784
-0.737504 -0.0449396 -0.0223092
-0.734379 -0.0449902 -0.0224341
-0.731254 -0.0450385 -0.0225397
-0.72813 -0.0450943 -0.0226539
-0.725006 -0.0451511 -0.0227633
-0.721881 -0.0452088 -0.0228678
-0.718756 -0.0452674 -0.0229677
-0.715631 -0.0453228 -0.0230519
-0.712506 -0.0453824 -0.0231422
-0.709382 -0.0454417 -0.023228
-0.706257 -0.0455006 -0.0233093
-0.703131 -0.0455591 -0.0233862
-0.700006 -0.0456142 -0.0234527
-0.696881 -0.0456715 -0.0235211
-0.693756 -0.0457282 -0.0235857
-0.690631 -0.0457842 -0.0236466
-0.687507 -0.0458395 -0.0237039
-0.684866 -0.0458849 -0.0237471
-0.682226 -0.0459309 -0.0237904
-0.679585 -0.0459768 -0.0238322
-0.676945 -0.0460224 -0.0238722
-0.673561 -0.0460806 -0.0239214
-0.673225 -0.0460864 -0.0239261
-0.672889 -0.0460922 -0.0239307
-0.672553 -0.0460979 -0.0239352
-0.672217 -0.0461037 -0.0239398
-0.671881 -0.0461094 -0.0239443
-0.668755 -0.0461629 -0.0239863
-0.66563 -0.0462165 -0.0240264
-0.662505 -0.0462702 -0.0240649
-0.65938 -0.0463241 -0.0241021
-0.656255 -0.0463782 -0.0241383
-0.655218 -0.0463963 -0.0241503
-0.654181 -0.0464144 -0.024162
-0.653144 -0.0464326 -0.0241737
-0.652107 -0.0464508 -0.0241853
-0.651094 -0.0464686 -0.0241967
-0.649001 -0.0465057 -0.0242201
-0.646908 -0.0465429 -0.0242431
-0.644814 -0.0465804 -0.0242658
-0.642721 -0.0466182 -0.0242881
-0.640628 -0.0466562 -0.02431
-0.637503 -0.0467131 -0.0243429
-0.634378 -0.046771 -0.024375
-0.631253 -0.0468299 -0.024407
-0.628128 -0.0468897 -0.0244387
-0.625003 -0.0469504 -0.0244702
-0.621877 -0.0470119 -0.0245031
-0.618752 -0.0470744 -0.0245347
-0.615627 -0.0471377 -0.0245661
-0.612502 -0.0472019 -0.0245975
-0.609377 -0.0472669 -0.0246288
-0.606252 -0.0473324 -0.0246619
-0.603126 -0.0473988 -0.024693
-0.600001 -0.0474658 -0.0247238
-0.596876 -0.0475334 -0.0247541
-0.593751 -0.0476016 -0.0247842
-0.590626 -0.0476704 -0.0248164
-0.5875 -0.0477396 -0.0248459
-0.584375 -0.0478093 -0.0248748
-0.581249 -0.0478794 -0.0249032
-0.578124 -0.0479501 -0.0249311
-0.574999 -0.0480209 -0.0249609
-0.571873 -0.0480925 -0.0249881
-0.568748 -0.0481646 -0.025015
-0.565622 -0.0482373 -0.0250414
-0.562497 -0.0483105 -0.0250673
-0.559371 -0.0483844 -0.0250959
-0.556245 -0.0484586 -0.0251213
-0.55312 -0.0485327 -0.0251461
-0.549994 -0.0486068 -0.0251702
-0.546868 -0.048681 -0.0251937
-0.543742 -0.048755 -0.0252188
-0.540616 -0.0488301 -0.0252418
-0.537489 -0.0489064 -0.0252648
-0.534363 -0.0489838 -0.0252876
-0.531237 -0.0490625 -0.0253104
-0.52811 -0.0491423 -0.0253359
-0.524984 -0.0492238 -0.0253596
-0.521858 -0.0493085 -0.0253842
-0.518731 -0.0493964 -0.0254096
-0.515604 -0.0494874 -0.025436
-0.512478 -0.0495805 -0.0254643
-0.509352 -0.0496753 -0.0254914
-0.506225 -0.0497708 -0.0255183
-0.503099 -0.0498668 -0.025545
-0.499973 -0.0499634 -0.0255714
-0.496847 -0.0500608 -0.0255998
-0.493721 -0.0501571 -0.0256253
-0.490594 -0.0502515 -0.0256494
-0.487468 -0.0503437 -0.025672
-0.484343 -0.0504337 -0.0256931
-0.481217 -0.0505235 -0.0257136
-0.478092 -0.0506129 -0.0257329
-0.474967 -0.050701 -0.0257511
-0.471842 -0.050788 -0.0257682
-0.468717 -0.0508738 -0.0257845
-0.465593 -0.050958 -0.0258018
-0.462469 -0.0510441 -0.0258165
-0.459346 -0.0511302 -0.0258303
-0.456222 -0.051216 -0.0258434
-0.453098 -0.0513015 -0.0258562
-0.449974 -0.0513869 -0.0258692
-0.44685 -0.0514736 -0.0258803
-0.443726 -0.0515604 -0.0258906
-0.440602 -0.0516467 -0.0259005
-0.437478 -0.0517317 -0.0259109
-0.434355 -0.051813 -0.0259237
-0.431232 -0.0518982 -0.025934
-0.428109 -0.0519841 -0.0259434
-0.424986 -0.0520695 -0.0259525
-0.421863 -0.0521541 -0.0259618
-0.41874 -0.0522371 -0.0259721
-0.415616 -0.0523218 -0.0259809
-0.412493 -0.0524067 -0.025989
-0.409369 -0.0524911 -0.0259968
-0.406245 -0.0525741 -0.0260048
-0.403122 -0.0526521 -0.0260145
-0.399999 -0.0527353 -0.0260211
-0.396876 -0.0528197 -0.0260266
-0.393753 -0.0529036 -0.0260317
-0.39063 -0.0529867 -0.0260366
-0.387506 -0.0530672 -0.0260428
-0.384383 -0.0531504 -0.0260469
-0.381259 -0.053234 -0.0260504
-0.378136 -0.0533173 -0.0260536
-0.375012 -0.0533994 -0.0260568
-0.371888 -0.0534754 -0.0260624
-0.368765 -0.0535579 -0.0260652
-0.365642 -0.0536415 -0.026067
-0.362519 -0.0537249 -0.0260686
-0.359395 -0.0538075 -0.02607
-0.356271 -0.0538867 -0.0260725
-0.353147 -0.0539694 -0.0260732
-0.350023 -0.0540524 -0.0260735
-0.346899 -0.0541351 -0.0260735
-0.343775 -0.0542169 -0.0260735
-0.340652 -0.0542916 -0.0260759
-0.337528 -0.0543735 -0.0260759
-0.334405 -0.0544559 -0.0260755
-0.331281 -0.0545383 -0.0260749
-0.328157 -0.0546203 -0.0260743
-0.325033 -0.0546982 -0.0260748
-0.321909 -0.0547804 -0.0260744
-0.318785 -0.0548627 -0.026074
-0.315661 -0.0549449 -0.0260736
-0.312536 -0.0550269 -0.0260732
-0.309412 -0.0551012 -0.026075
-0.306288 -0.0551833 -0.0260759
-0.303164 -0.0552651 -0.0260766
-0.30004 -0.0553467 -0.026077
-0.296915 -0.0554282 -0.0260774
-0.29379 -0.0555056 -0.0260772
-0.290665 -0.0555871 -0.0260759
-0.28754 -0.0556686 -0.0260741
-0.284415 -0.0557496 -0.026072
-0.28129 -0.0558303 -0.0260695
-0.278164 -0.055904 -0.0260682
-0.275038 -0.0559842 -0.0260656
-0.271911 -0.0560636 -0.0260626
-0.268785 -0.0561421 -0.0260592
-0.265659 -0.0562205 -0.0260552
-0.262528 -0.0562953 -0.0260508
-0.259398 -0.0563741 -0.0260438
-0.256267 -0.0564542 -0.0260351
-0.253137 -0.0565345 -0.0260217
-0.250006 -0.0566153 -0.0260036
-0.247107 -0.0566883 -0.0259846
-0.244209 -0.0567644 -0.0259648
-0.241311 -0.0568406 -0.0259446
-0.238413 -0.0569168 -0.0259239
-0.235734 -0.0569872 -0.0259047
-0.235468 -0.0569942 -0.0259029
-0.235202 -0.0570011 -0.0259011
-0.234936 -0.0570081 -0.0258992
-0.23467 -0.0570151 -0.0258974
-0.234403 -0.0570221 -0.0258957
-0.23128 -0.0571039 -0.0258745
-0.228156 -0.0571832 -0.0258553
-0.225032 -0.0572604 -0.0258404
-0.221908 -0.0573364 -0.0258329
-0.218786 -0.057411 -0.025833
-0.215661 -0.0574816 -0.0258388
-0.212537 -0.0575509 -0.025849
-0.209412 -0.0576175 -0.0258635
-0.206288 -0.0576816 -0.0258824
-0.203163 -0.057743 -0.0259036
-0.200038 -0.0578007 -0.0259245
-0.196913 -0.0578562 -0.0259464
-0.193788 -0.0579098 -0.0259704
-0.190663 -0.0579613 -0.0259977
-0.187538 -0.0580107 -0.0260283
-0.184407 -0.0580578 -0.0260615
-0.181276 -0.0581036 -0.0260949
-0.178146 -0.0581488 -0.0261282
-0.175015 -0.0581933 -0.0261613
-0.171884 -0.0582371 -0.0261942
-0.168757 -0.0582818 -0.026227
-0.16563 -0.058327 -0.0262581
-0.162502 -0.0583724 -0.0262868
-0.159375 -0.0584178 -0.0263121
-0.156248 -0.0584633 -0.0263338
[...]
POINT_DATA 996
 FIELD attributes 2
p 1 996 float
-36.7366 -36.8251 -36.9136 -37.0021 -37.0461 -37.0745 -37.3784 -37.4703 -37.5623 -37.6543 -37.7465 -38.6687 -39.5932 -40.52 -41.4492 -42.142 -42.1081 -41.8375 -41.5332 -41.2299 -41.1217 -41.367 -41.4777 -41.6259 -42.0691 -42.4842 -44.1092 -45.0831 -46.0573 -46.9973 -47.4989 -48.6341 -49.1838 -49.7339 -50.2064 -50.6308 -50.7271 -50.8234 -50.9197 -51.0162 -51.1203 -51.5958 -52.0994 -52.6042 -53.1101 -53.7511 -53.9558 -54.1115 -54.2672 -54.423 -54.5653 -54.6839 -54.8024 -54.9205 -55.0384 -55.6514 -56.3108 -57.262 -58.0196 -58.7773 -59.6689 -60.8379 -61.2953 -61.7519 -62.2079 -61.7777 -61.5024 -61.2274 -60.9537 -60.6557 -60.1292 -60.2529 -60.5127 -60.7735 -61.0354 -61.2712 -61.3392 -61.4074 -61.476 -61.467 -61.6893 -61.9768 -62.3383 -62.6993 -63.0596 -63.7138 -64.5618 -66.0947 -67.2394 -68.3531 -69.8258 -73.587 -74.4354 -75.2829 -76.3976 -74.1838 -77.317 -77.5561 -77.7742 -77.9954 -76.4209 -78.0428 -78.1413 -78.2432 -78.3484 -77.1935 -78.3255 -78.0099 -77.6972 -77.3872 -76.1135 -76.3841 -75.7998 -75.2178 -74.6383 -73.3525 -73.4956 -72.9805 -72.4701 -71.9642 -71.1709 -70.914 -70.2688 -69.6283 -68.9923 -68.2744 -67.6596 -67.0582 -66.4578 -65.8582 -65.0907 -65.0148 -64.939 -64.8631 -64.7873 -64.7178 -64.1715 -63.6302 -63.0949 -62.5687 -62.0616 -61.9125 -61.7621 -61.6117 -61.4613 -61.3145 -61.0018 -60.689 -60.3763 -60.0635 -59.7818 -59.4209 -59.0749 -58.7288 -58.3828 -58.1031 -57.9667 -57.8916 -57.8166 -57.7415 -57.759 -57.7632 -57.847 -57.9308 -58.0146 -58.1489 -58.0682 -58.063 -58.0577 -58.0525 -58.1101 -57.9547 -57.8772 -57.7997 -57.7222 -57.7637 -57.5739 -57.5107 -57.4476 -57.3844 -57.4527 -57.1598 -56.8598 -56.56 -56.2602 -56.1277 -55.9591 -55.9282 -55.8975 -55.8669 -55.9986 -56.1641 -56.8064 -57.4487 -58.0909 -58.844 -58.8448 -59.2751 -59.7063 -60.1379 -60.7875 -60.5954 -60.523 -60.4508 -60.4272 -60.7492 -60.4023 -60.2106 -60.0333 -59.9555 -60.1947 -59.9079 -59.8026 -59.7725 -59.7926 -59.9636 -59.8105 -59.8045 -59.876 -59.9975 -60.2573 -60.2295 -60.297 -60.3975 -60.528 -60.7182 -60.7415 -60.7772 -60.8063 -60.8443 -60.9143 -60.8099 -60.7576 -60.7245 -60.7383 -60.7854 -60.7193 -60.7002 -60.6933 -60.7036 -60.8047 -60.7006 -60.6595 -60.6113 -60.5513 -60.5432 -60.4172 -60.3732 -60.3256 -60.2642 -60.3426 -60.2441 -60.2315 -60.2305 -60.2323 -60.2926 -60.2888 -60.4333 -60.5779 -60.7325 -61.0106 -61.2301 -61.3554 -61.4742 -61.593 -61.5658 -61.6724 -61.8671 -62.0619 -62.1386 -62.2492 -62.255 -62.2756 -62.806 -63.3355 -63.6154 -62.6316 -61.5616 -60.4917 -59.6708 -59.3466 -59.3083 -59.2701 -59.2318 -59.1935 -59.1755 -59.2349 -58.6762 -57.3156 -55.9704 -54.8239 -56.1949 -56.9682 -57.7411 -58.4628 -58.9841 -59.8554 -60.5246 -61.3643 -62.2011 -62.2681 -63.6706 -64.8663 -66.062 -66.9774 -67.6271 -68.5135 -69.2514 -70.1441 -71.0392 -71.8712 -71.5715 -71.5175 -71.4639 -71.5179 -71.5984 -71.8407 -71.9715 -72.0545 -72.1376 -72.3129 -72.4041 -72.522 -72.6401 -72.7301 -72.713 -72.6804 -72.8561 -73.0319 -73.2005 -73.3601 -73.4445 -73.5289 -73.6133 -73.6977 -74.0938 -75.4387 -75.7358 -75.6519 -76.0513 -75.9213 -76.1544 -76.0832 -76.012 -76.1868 -75.8428 -75.9612 -75.7813 -75.6775 -75.5738 -75.4529 -75.338 -75.1328 -74.9277 -74.5671 -74.1161 -73.6879 -73.5077 -73.3693 -73.2308 -73.1956 -73.1999 -73.1627 -73.1255 -73.0833 -73.0275 -72.8635 -72.657 -72.4988 -72.341 -72.1509 -72.0302 -71.8963 -71.7625 -71.6101 -71.3857 -71.3843 -71.3829 -71.3815 -71.3801 -71.3789 -71.4987 -71.6002 -71.6725 -71.745 -71.8346 -72.0604 -72.2903 -72.5202 -72.7839 -73.065 -73.3283 -73.5954 -73.8426 -74.0898 -74.366 -74.5927 -74.8301 -75.0676 -75.3212 -75.6035 -75.9028 -76.2194 -76.5159 -76.8124 -77.1647 -77.5379 -77.9247 -78.3116 -78.7213 -79.135 -79.5124 -79.9111 -80.3011 -80.6912 -81.0879 -81.3599 -81.6605 -81.9612 -82.2718 -82.5996 -82.7625 -82.9726 -83.1808 -83.3891 -83.6613 -83.7839 -83.9886 -84.1933 -84.3877 -84.6597 -84.7649 -84.9455 -85.1754 -85.4055 -85.6839 -85.8061 -86.1385 -86.4711 -86.7951 -87.2687 -87.5737 -88.0582 -88.5128 -88.9676 -89.5329 -89.8301 -90.3975 -90.9653 -91.5366 -92.2651 -92.5802 -93.2806 -93.9868 -94.6938 -95.512 -95.8181 -96.7941 -97.7722 -98.8504 -100.301 -101.476 -104.044 -105.285 -106.537 -109.157 -107.437 -107.554 -107.684 -108.88 -110.156 -110.121 -110.084 -110.047 -110.01 -109.974 -108.641 -107.309 -106.699 -106.413 -106.643 -107.401 -108.174 -109.236 -110.807 -112.403 -113.06 -113.734 -114.099 -114.322 -114.716 -114.9 -114.037 -112.844 -111.528 -109.23 -105.068 -102.626 -100.568 -99.1709 -98.676 -97.4045 -96.2638 -95.21 -94.2154 -93.4842 -91.0113 -88.9055 -86.8049 -84.6496 -82.8735 -80.0125 -77.5728 -75.3491 -73.237 -71.2556 -70.7874 -70.4051 -70.0227 -69.6404 -69.2515 -67.6793 -66.0233 -64.2554 -62.4881 -60.9102 -58.5906 -56.1451 -53.6994 -51.4052 -48.2571 -45.0565 -42.7226 -40.3628 -38.0725 -36.1068 -33.9627 -32.8291 -31.9205 -30.9458 -30.6439 -30.3228 -30.7551 -31.2205 -31.7002 -32.5732 -33.9036 -35.6501 -37.4088 -39.2789 -41.3265 -41.8046 -42.3359 -42.8676 -43.3994 -43.933 -46.589 -48.8178 -51.0501 -53.2858 -55.6725 -58.9563 -62.3629 -65.7715 -69.1821 -73.2495 -76.8953 -80.1864 -83.5036 -86.8216 -90.3183 -93.0478 -95.9923 -98.938 -101.799 -104.418 -106.198 -107.922 -109.909 -111.899 -114.471 -114.965 -115.459 -115.954 -116.448 -116.913 -118.69 -120.46 -122.234 -123.975 -125.718 -127.168 -128.72 -130.474 -132.232 -133.888 -135.327 -136.747 -138.157 -139.478 -141.021 -141.428 -142.092 -142.817 -143.573 -144.384 -144.886 -145.503 -146.116 -147.113 -148.367 -147.839 -147.467 -147.879 -148.686 -149.565 -149.502 -149.495 -149.906 -151.042 -152.326 -152.387 -152.597 -153.284 -153.988 -154.621 -155.193 -155.782 -156.335 -156.91 -157.801 -157.43 -157.637 -157.68 -157.667 -157.548 -157.549 -157.218 -156.895 -156.828 -156.816 -156.189 -155.792 -155.2 -154.618 -154.044 -153.983 -153.911 -153.84 -153.769 -153.701 -153.039 -152.38 -151.726 -151.303 -151.416 -151.558 -150.866 -149.997 -149.123 -147.961 -146.881 -145.809 -144.711 -143.501 -142.346 -141.508 -140.609 -139.714 -138.765 -137.928 -136.933 -135.904 -134.83 -133.766 -132.712 -132.584 -132.436 -132.289 -132.141 -131.993 -131.463 -130.934 -130.407 -129.88 -129.394 -128.755 -128.162 -127.587 -127.006 -126.331 -124.873 -123.498 -122.132 -120.773 -119.377 -117.749 -116.236 -114.558 -112.82 -111.089 -109.596 -108.022 -106.436 -104.857 -103.545 -103.391 -103.237 -103.083 -102.928 -102.769 -101.062 -99.3478 -97.6374 -96.0026 -94.5391 -92.3962 -90.568 -88.8729 -87.3481 -86.0478 -84.8977 -83.7165 -82.5173 -81.3222 -80.2818 -79.8251 -79.369 -78.9134 -78.4998 -78.1356 -76.331 -74.5548 -72.7102 -71.0588 -69.4328 -67.2184 -65.0386 -62.91 -60.7911 -58.9228 -58.8683 -58.8138 -58.7593 -58.713 -58.672 -56.3707 -54.092 -51.8264 -49.7041 -47.6323 -45.2765 -42.8085 -40.0385 -37.2067 -34.7833 -34.4755 -34.168 -33.8607 -33.5614 -33.2638 -29.6844 -26.2157 -22.9159 -19.3314 -15.6436 -13.9359 -12.2166 -9.73489 -7.25563 -5.02055 -2.96118 -0.91446 1.16686 3.85783 6.58258 11.0213 15.4874 20.7999 26.147 30.8431 31.6445 32.4452 33.2445 34.0365 34.8317 41.4764 47.777 53.6319 59.4394 64.7763 66.0067 67.237 68.5216 69.8124 71.0946 75.71 80.3245 84.7658 88.0504 91.2058 94.092 96.978 99.5771 102.14 104.751 106.654 108.556 110.167 111.39 112.637 116.222 119.405 122.579 125.744 128.365 128.481 128.598 128.681 128.763 128.847 131.119 133.067 135 136.923 138.585 139.52 140.303 140.991 141.674 142.333 142.828 143.207 143.585 143.961 144.27 144.534 144.759 144.983 145.204 145.441 145.67 145.878 146.082 146.283 146.425 146.481 146.481 146.479 146.473 146.369 146.406 146.373 146.332 146.267 146.006 145.79 145.488 145.232 144.977 144.616 144.127 143.769 143.272 142.798 142.278 142.203 142.128 142.053 141.967 141.861 139.573 137.379 135.149 133.051 131.156 130.392 129.623 128.086 125.212 122.313 116.996 113.832 110.2 105.689 99.9524 96.1516 92.6262 89.4694 86.2975 83.2543 81.0187 79.1803 77.3156 74.9663 73.4468 69.0385 65.2565 62.186 57.933 53.3396 50.4522 47.8448 45.6457 43.5427 41.7841 38.2247 35.1403 32.4105 29.6815 26.8162 25.0793 23.1747 21.2918 19.5644 17.8656 16.7491 15.646 14.4918 13.3209 12.2617 11.4556 10.5673 9.69048 8.8314 8.01557 7.39577 6.88684 6.39595 5.92481 5.65578 5.22617 4.84972 4.47306 4.10108 3.66854 3.38131 3.12037 2.86644 2.61251 2.36134 2.02327 1.82119 1.61901 1.35075 1.08122 0.968348 0.853278 0.738209 0.622866 0.508225 0.458686 0.408189 0.357691 0.308811 0.260342 0.236766 0.212332 0.187898 0.163958 0.139969 0.126699 0.113046 0.0993933 0.0860498 0.0727601 0.0655881 0.0583453 0.0511025 0.0442869 0.0376154 0.0339833 0.0303435 0.0267038 0.0235044 0.0204168 0.0184615 0.0165436 0.0146257 0.0130973 0.0116792 0.0104959 0.00934586 0.00819583 0.00739437 0.00667132 0.00590684 0.00522716 0.00454748 0.00426685 0.00409681 0.00278808 0.00145997 0.000131867 8.47277e-05 7.58966e-05
k 1 996 float
0.554603 0.554735 0.554867 0.555 0.554599 0.554014 0.555043 0.555231 0.55542 0.555612 0.555805 0.557204 0.5587 0.560292 0.561979 0.568706 0.562169 0.567768 0.573937 0.580199 0.587959 0.592196 0.608253 0.622822 0.625949 0.640786 0.641617 0.643366 0.645163 0.644148 0.632967 0.637833 0.642466 0.647126 0.64906 0.649709 0.650077 0.650449 0.650823 0.6512 0.651995 0.661232 0.673293 0.685399 0.69755 0.701643 0.70182 0.701859 0.701904 0.701953 0.70193 0.699101 0.696387 0.693802 0.691363 0.684913 0.685085 0.680833 0.684599 0.688367 0.683834 0.700081 0.705197 0.710383 0.715635 0.695664 0.736442 0.745197 0.754 0.760382 0.744738 0.776145 0.78341 0.79083 0.798403 0.805329 0.810299 0.815279 0.82027 0.823195 0.829876 0.831146 0.824522 0.818193 0.812219 0.798558 0.815654 0.798688 0.800213 0.803447 0.781684 0.810137 0.812279 0.814582 0.812361 0.772737 0.827083 0.835119 0.839995 0.845043 0.815589 0.862689 0.86873 0.874941 0.881319 0.852955 0.903745 0.909888 0.916269 0.922887 0.899742 0.941099 0.947865 0.954817 0.961955 0.940822 0.978328 0.984422 0.990888 0.997722 0.988764 1.01391 1.02073 1.02788 1.03534 1.03448 1.04945 1.05619 1.06309 1.07015 1.07941 1.08041 1.08142 1.08243 1.08345 1.08459 1.09313 1.10221 1.11193 1.12253 1.13447 1.13407 1.13756 1.14105 1.14454 1.14796 1.15285 1.15776 1.16269 1.16765 1.1792 1.17878 1.18607 1.19335 1.20062 1.22085 1.21002 1.21783 1.22562 1.23339 1.27355 1.24413 1.25225 1.26039 1.26854 1.31258 1.27746 1.28649 1.29557 1.30469 1.3755 1.31491 1.32526 1.33563 1.34604 1.41301 1.35633 1.36777 1.3793 1.39091 1.48676 1.40193 1.41259 1.42322 1.43381 1.51664 1.44033 1.44823 1.45588 1.46328 1.58152 1.47011 1.4782 1.4863 1.49441 1.59596 1.49572 1.50165 1.50831 1.51528 1.67105 1.50978 1.51624 1.52292 1.53718 1.66864 1.53287 1.51704 1.52416 1.57392 1.75918 1.57175 1.52791 1.54357 1.59943 1.76027 1.5994 1.56501 1.58051 1.64788 1.85885 1.64987 1.60799 1.62387 1.67943 1.8678 1.68224 1.64833 1.66428 1.72697 1.95915 1.73119 1.6978 1.71369 1.7626 1.97498 1.7678 1.74194 1.75726 1.80925 2.05937 1.81543 1.79715 1.81136 1.84789 2.08138 1.85516 1.844 1.85763 1.89235 2.15726 1.9009 1.90459 1.91705 1.93398 2.18567 1.9438 1.95614 1.96872 1.98569 2.25097 2.00559 2.02097 2.03016 2.03952 2.27367 2.06863 2.08393 2.09941 2.11471 2.31111 2.16159 2.18721 2.21224 2.23923 2.34364 2.28959 2.30347 2.31754 2.33795 2.36757 2.37095 2.37433 2.37769 2.38106 2.37536 2.42197 2.45414 2.47941 2.50111 2.41887 2.53337 2.53834 2.54118 2.54703 2.43414 2.55857 2.56309 2.56261 2.56056 2.4265 2.56483 2.57077 2.57681 2.58375 2.44006 2.59963 2.60131 2.59958 2.59952 2.4056 2.60976 2.60904 2.60912 2.6158 2.44435 2.6436 2.64636 2.64187 2.63779 2.43284 2.63049 2.61654 2.60331 2.60184 2.5092 2.60797 2.61181 2.6155 2.60635 2.59418 2.58762 2.58105 2.57447 2.56787 2.65695 2.63499 2.41763 2.1751 2.20459 2.1105 2.18636 2.17805 2.16991 2.11898 2.08022 2.08467 2.09012 2.08368 2.07742 1.97193 2.0718 2.07037 2.06904 2.07044 2.03072 2.08037 2.08364 2.08226 2.08093 2.02482 2.08782 2.08702 2.08629 2.0908 2.04803 2.10735 2.11047 2.10875 2.10711 2.08416 2.10673 2.10497 2.10326 2.10468 2.11227 2.11233 2.1124 2.11247 2.11253 2.11264 2.12133 2.12709 2.1281 2.12908 2.13955 2.13047 2.13155 2.13263 2.13846 2.16062 2.15139 2.15708 2.15808 2.15908 2.19194 2.15933 2.16025 2.16117 2.16654 2.2042 2.17531 2.18087 2.18212 2.18335 2.2407 2.18375 2.18548 2.18721 2.19379 2.24955 2.20196 2.20843 2.21006 2.21175 2.29481 2.21134 2.2123 2.21335 2.21825 2.29014 2.22147 2.225 2.22552 2.22612 2.33354 2.22428 2.22472 2.22523 2.2283 2.31718 2.22913 2.23075 2.23094 2.23119 2.36354 2.22945 2.23024 2.23114 2.23441 2.34052 2.23673 2.23755 2.23824 2.23909 2.39113 2.24041 2.24112 2.24207 2.24191 2.35234 2.2443 2.23817 2.23844 2.23909 2.38466 2.24876 2.24771 2.24714 2.23151 2.31389 2.23545 2.2172 2.20406 2.1922 2.27832 2.21722 2.21353 2.21132 2.27654 2.34741 2.3479 2.34813 2.34836 2.34859 2.34882 2.36079 2.37267 2.38283 2.39252 2.36834 2.38897 2.38898 2.38954 2.39032 2.33511 2.34359 2.31824 2.31065 2.31205 2.23947 2.28481 2.2967 2.29703 2.29397 2.2627 2.32138 2.33497 2.33909 2.30511 2.19055 2.26798 2.28964 2.28024 2.26318 2.20831 2.24313 2.24233 2.24067 2.22189 2.16898 2.20306 2.1905 2.1868 2.18769 2.18464 2.18848 2.18938 2.19029 2.19119 2.1921 2.19714 2.19851 2.19499 2.19141 2.17416 2.19362 2.19483 2.19559 2.20416 2.18635 2.22101 2.23106 2.23447 2.23167 2.19926 2.24805 2.25788 2.25869 2.25873 2.23944 2.2716 2.27527 2.27748 2.27871 2.26379 2.28897 2.29187 2.29392 2.29597 2.29666 2.29881 2.29893 2.29902 2.2991 2.29916 2.30233 2.3051 2.3074 2.30925 2.3009 2.30544 2.3044 2.3031 2.30156 2.27145 2.28362 2.27786 2.26994 2.26207 2.2378 2.237 2.2307 2.22452 2.21644 2.1966 2.19138 2.18133 2.17486 2.16856 2.16063 2.1591 2.15758 2.15608 2.15458 2.15285 2.14225 2.13189 2.12195 2.10993 2.09923 2.08709 2.07641 2.07399 2.07196 2.06613 2.06128 2.0544 2.04694 2.0339 2.03387 2.0113 1.99451 1.99085 1.98716 1.97468 1.96551 1.9599 1.953 1.96746 1.99402 1.94528 1.90363 1.8992 1.8929 1.88518 1.874 1.86637 1.8663 1.91262 1.97135 1.89644 1.84419 1.84041 1.84014 1.84343 1.83456 1.82894 1.8278 1.84473 1.90573 1.83717 1.83383 1.83652 1.83981 1.85262 1.84195 1.84072 1.8404 1.846 1.88809 1.85571 1.86009 1.85142 1.84377 1.83988 1.83903 1.83861 1.83821 1.83782 1.83746 1.83022 1.82359 1.81755 1.82039 1.83044 1.8391 1.8384 1.8457 1.8558 1.90556 1.87509 1.88296 1.88865 1.88439 1.88138 1.88524 1.87206 1.86065 1.86424 1.87953 1.87521 1.87322 1.86426 1.85611 1.84906 1.84918 1.84879 1.84841 1.84804 1.84768 1.84597 1.84438 1.84292 1.84166 1.84146 1.84223 1.84421 1.84677 1.84922 1.8439 1.84517 1.84897 1.85344 1.85859 1.84944 1.85533 1.86291 1.85884 1.85052 1.83307 1.84334 1.83865 1.83091 1.82359 1.8156 1.8152 1.8148 1.81441 1.81379 1.81207 1.80862 1.80706 1.80647 1.80692 1.80873 1.80155 1.80356 1.80224 1.7948 1.7877 1.79449 1.79374 1.78841 1.78332 1.77922 1.77961 1.78004 1.78051 1.7766 1.76739 1.7722 1.7723 1.7718 1.76832 1.76434 1.76149 1.75263 1.74075 1.72931 1.71957 1.71931 1.71905 1.71879 1.71867 1.71863 1.71019 1.70293 1.69627 1.68283 1.67 1.67537 1.67611 1.66442 1.6561 1.65009 1.6494 1.64871 1.64803 1.64578 1.64314 1.63648 1.63054 1.62206 1.62523 1.62272 1.6175 1.6125 1.61276 1.6131 1.61172 1.60669 1.60187 1.59689 1.58704 1.57711 1.57879 1.57976 1.56763 1.55451 1.54312 1.54095 1.5388 1.53666 1.53456 1.53246 1.53222 1.53031 1.52194 1.50764 1.49034 1.49311 1.49589 1.49385 1.49124 1.48866 1.48874 1.48891 1.48706 1.475 1.4622 1.46758 1.47295 1.46759 1.46091 1.45409 1.45468 1.45527 1.45565 1.45138 1.44702 1.45198 1.44972 1.44735 1.44486 1.43682 1.43706 1.43729 1.437 1.43671 1.43642 1.44223 1.43963 1.43677 1.43378 1.42581 1.42824 1.42642 1.4254 1.42431 1.42064 1.42138 1.42025 1.41911 1.41794 1.41575 1.41533 1.41396 1.41256 1.41114 1.40958 1.40832 1.40722 1.40608 1.40488 1.4067 1.40237 1.4008 1.3992 1.39757 1.4008 1.39486 1.39232 1.38996 1.38818 1.39308 1.3834 1.38058 1.37699 1.37317 1.38331 1.36873 1.36765 1.36584 1.37509 1.39093 1.3876 1.38427 1.38094 1.38168 1.38959 1.40591 1.4348 1.466 1.5058 1.55673 1.47666 1.3966 1.38657 1.49451 1.60536 1.54464 1.53565 1.54228 1.57636 1.45566 1.40434 1.36571 1.34781 1.33064 1.28704 1.30339 1.29434 1.28473 1.25745 1.21815 1.17414 1.11213 1.01359 0.982234 0.97084 0.942001 0.914212 0.886861 0.855471 0.809869 0.74789 0.641892 0.599481 0.557279 0.513667 0.515754 0.499856 0.484733 0.47513 0.454083 0.455223 0.447435 0.436454 0.424434 0.405188 0.404882 0.395288 0.387002 0.380729 0.367347 0.366065 0.357452 0.349273 0.341567 0.329092 0.300337 0.28729 0.274252 0.261727 0.250724 0.24785 0.244775 0.242018 0.239262 0.234336 0.229198 0.223542 0.217894 0.21818 0.218803 0.216945 0.215156 0.213367 0.21238 0.211519 0.209882 0.208249 0.206616 0.205665 0.204766 0.203315 0.201817 0.200319 0.199402 0.198479 0.197186 0.195805 0.194425 0.193539 0.192603 0.191444 0.190167 0.18889 0.188034 0.187094 0.186049 0.184863 0.183677 0.182851 0.181913 0.180965 0.17986 0.178755 0.177957 0.177027 0.176163 0.175131 0.174098 0.173326 0.172408 0.171617 0.170649 0.169682 0.168935 0.168033 0.167708 0.167241 0.166773 0.166406 0.165909
