# vtk DataFile Version 2.0
track0
ASCII
DATASET POLYDATA
POINTS 996 float
-1.001 -0.05 0.0011
-1.00075 -0.0499924 0.00106851
-1.00051 -0.0499849 0.00103703
-1.00026 -0.0499773 0.00100556
-1.00001 -0.0499697 0.000974104
-0.999764 -0.0499621 0.000942726
-0.999425 -0.0499516 0.000899841
-0.999086 -0.0499411 0.000856839
-0.998747 -0.0499305 0.000813916
-0.998408 -0.0499199 0.000771072
-0.998069 -0.0499093 0.000728296
-0.995314 -0.0498228 0.000381576
-0.992559 -0.0497353 3.93132e-05
-0.989803 -0.0496467 -0.000298525
-0.987046 -0.049557 -0.000631971
-0.984295 -0.0494663 -0.000960446
-0.981186 -0.0493607 -0.00133049
-0.978076 -0.049258 -0.00169736
-0.974966 -0.0491543 -0.00206066
-0.971855 -0.0490496 -0.00242034
-0.968748 -0.048944 -0.00277594
-0.965631 -0.0488393 -0.00312913
-0.962514 -0.0487332 -0.00348276
-0.959397 -0.0486268 -0.00383761
-0.95628 -0.0485201 -0.00419354
-0.953162 -0.0484131 -0.0045496
-0.949918 -0.0482997 -0.00492083
-0.946674 -0.0481902 -0.0052938
-0.943429 -0.0480808 -0.0056653
-0.940185 -0.0479717 -0.00603533
-0.93694 -0.0478632 -0.00640221
-0.934397 -0.047774 -0.00667806
-0.931855 -0.0476902 -0.0069586
-0.929312 -0.0476066 -0.00723718
-0.92677 -0.0475232 -0.00751395
-0.924295 -0.0474421 -0.00778059
-0.923806 -0.047426 -0.00783262
-0.923317 -0.04741 -0.00788454
-0.922829 -0.047394 -0.00793633
-0.92234 -0.0473779 -0.00798801
-0.921851 -0.0473619 -0.00803955
-0.918724 -0.0472599 -0.00836923
-0.915597 -0.0471593 -0.00869599
-0.912469 -0.0470605 -0.0090205
-0.909341 -0.0469636 -0.00934278
-0.906216 -0.0468686 -0.00966251
-0.905223 -0.0468387 -0.00976326
-0.90423 -0.046809 -0.00986393
-0.903238 -0.0467793 -0.00996444
-0.902245 -0.0467496 -0.0100648
-0.901248 -0.0467198 -0.0101654
-0.89881 -0.046647 -0.0104109
-0.896371 -0.0465735 -0.0106521
-0.893932 -0.0464993 -0.0108884
-0.891493 -0.0464242 -0.0111192
-0.889038 -0.0463477 -0.0113448
-0.886177 -0.0462633 -0.0115996
-0.883318 -0.046175 -0.0118695
-0.880458 -0.0460899 -0.0121378
-0.877599 -0.0460049 -0.012406
-0.874738 -0.04592 -0.0126742
-0.871645 -0.0458363 -0.0129483
-0.868553 -0.0457466 -0.0132326
-0.865461 -0.0456586 -0.0135133
-0.862369 -0.0455722 -0.0137908
-0.859275 -0.0454874 -0.0140652
-0.856183 -0.0454171 -0.0143325
-0.853092 -0.0453361 -0.0146025
-0.85 -0.0452588 -0.0148697
-0.846908 -0.045185 -0.0151342
-0.843816 -0.0451153 -0.0153948
-0.841716 -0.0450748 -0.0155604
-0.839617 -0.0450332 -0.0157328
-0.837518 -0.0449943 -0.0159029
-0.835419 -0.0449582 -0.0160708
-0.833535 -0.0449283 -0.0162193
-0.832469 -0.0449126 -0.0163025
-0.831403 -0.0448972 -0.0163854
-0.830336 -0.0448822 -0.0164682
-0.82927 -0.0448674 -0.0165509
-0.828203 -0.044853 -0.0166335
-0.824769 -0.0448107 -0.0168994
-0.821333 -0.0447634 -0.0171605
-0.817897 -0.0447141 -0.0174129
-0.814461 -0.0446624 -0.017655
-0.811005 -0.0446073 -0.0178854
-0.808124 -0.0445786 -0.018076
-0.805245 -0.0445513 -0.0182929
-0.802366 -0.0445265 -0.0185105
-0.799487 -0.0445071 -0.0187261
-0.796607 -0.0444927 -0.0189401
-0.793496 -0.0444862 -0.0191394
-0.790388 -0.0444849 -0.0193639
-0.787278 -0.0444868 -0.0195825
-0.784169 -0.0444919 -0.0197954
-0.781059 -0.0444986 -0.0200053
-0.777967 -0.0445153 -0.0201914
-0.774876 -0.0445308 -0.0203909
-0.771784 -0.0445482 -0.0205856
-0.768692 -0.0445682 -0.0207738
-0.765599 -0.0445906 -0.0209557
-0.762479 -0.0446141 -0.0211146
-0.759361 -0.044647 -0.021287
-0.756242 -0.0446823 -0.0214528
-0.753123 -0.0447199 -0.0216122
-0.750003 -0.0447599 -0.0217653
-0.746878 -0.0447996 -0.0218979
-0.743754 -0.0448443 -0.0220413
-0.740629 -0.0448909 -0.0221784
-0.737504 -0.0449396 -0.0223092
-0.734379 -0.0449902 -0.0224341
-0.731254 -0.0450385 -0.0225397
-0.72813 -0.0450943 -0.0226539
-0.725006 -0.0451511 -0.0227633
-0.721881 -0.0452088 -0.0228678
-0.718756 -0.0452674 -0.0229677
-0.715631 -0.0453228 -0.0230519
-0.712506 -0.0453824 -0.0231422
-0.709382 -0.0454417 -0.023228
-0.706257 -0.0455006 -0.0233093
-0.703131 -0.0455591 -0.0233862
-0.700006 -0.0456142 -0.0234527
-0.696881 -0.0456715 -0.0235211
-0.693756 -0.0457282 -0.0235857
-0.690631 -0.0457842 -0.0236466
-0.687507 -0.0458395 -0.0237039
-0.684866 -0.0458849 -0.0237471
-0.682226 -0.0459309 -0.0237904
-0.679585 -0.0459767 -0.0238322
-0.676945 -0.0460224 -0.0238722
-0.673561 -0.0460806 -0.0239214
-0.673225 -0.0460864 -0.0239261
-0.672889 -0.0460921 -0.0239307
-0.672553 -0.0460979 -0.0239352
-0.672217 -0.0461037 -0.0239398
-0.671881 -0.0461094 -0.0239443
-0.668755 -0.0461629 -0.0239863
-0.66563 -0.0462165 -0.0240264
-0.662505 -0.0462702 -0.0240649
-0.65938 -0.0463241 -0.0241021
-0.656255 -0.0463782 -0.0241383
-0.655217 -0.0463963 -0.0241503
-0.65418 -0.0464144 -0.024162
-0.653143 -0.0464326 -0.0241737
-0.652106 -0.0464508 -0.0241853
-0.651093 -0.0464686 -0.0241967
-0.649 -0.0465057 -0.0242201
-0.646907 -0.0465429 -0.0242431
-0.644814 -0.0465804 -0.0242658
-0.642721 -0.0466182 -0.0242881
-0.640628 -0.0466561 -0.02431
-0.637503 -0.0467131 -0.0243429
-0.634378 -0.046771 -0.024375
-0.631253 -0.0468299 -0.024407
-0.628128 -0.0468897 -0.0244387
-0.625003 -0.0469504 -0.0244702
-0.621877 -0.0470119 -0.0245031
-0.618752 -0.0470744 -0.0245347
-0.615627 -0.0471377 -0.0245661
-0.612502 -0.0472019 -0.0245975
-0.609377 -0.0472669 -0.0246288
-0.606252 -0.0473324 -0.0246619
-0.603126 -0.0473988 -0.024693
-0.600001 -0.0474658 -0.0247238
-0.596876 -0.0475334 -0.0247541
-0.593751 -0.0476016 -0.0247842
-0.590626 -0.0476704 -0.0248165
-0.5875 -0.0477396 -0.0248459
-0.584375 -0.0478092 -0.0248748
-0.581249 -0.0478794 -0.0249032
-0.578124 -0.0479501 -0.0249311
-0.574999 -0.0480209 -0.0249609
-0.571873 -0.0480925 -0.0249881
-0.568748 -0.0481646 -0.025015
-0.565622 -0.0482373 -0.0250414
-0.562497 -0.0483105 -0.0250673
-0.559371 -0.0483844 -0.0250959
-0.556245 -0.0484586 -0.0251213
-0.55312 -0.0485327 -0.0251461
-0.549994 -0.0486068 -0.0251702
-0.546868 -0.048681 -0.0251937
-0.543742 -0.048755 -0.0252188
-0.540616 -0.0488301 -0.0252418
-0.537489 -0.0489064 -0.0252648
-0.534363 -0.0489838 -0.0252876
-0.531237 -0.0490625 -0.0253104
-0.52811 -0.0491423 -0.0253359
-0.524984 -0.0492238 -0.0253596
-0.521858 -0.0493085 -0.0253842
-0.518731 -0.0493963 -0.0254096
-0.515604 -0.0494874 -0.025436
-0.512478 -0.0495805 -0.0254643
-0.509352 -0.0496753 -0.0254914
-0.506225 -0.0497708 -0.0255183
-0.503099 -0.0498668 -0.025545
-0.499973 -0.0499634 -0.0255714
-0.496847 -0.0500608 -0.0255998
-0.493721 -0.0501571 -0.0256253
-0.490594 -0.0502514 -0.0256494
-0.487468 -0.0503436 -0.025672
-0.484343 -0.0504337 -0.0256931
-0.481217 -0.0505235 -0.0257136
-0.478092 -0.0506129 -0.0257329
-0.474967 -0.050701 -0.0257511
-0.471842 -0.050788 -0.0257682
-0.468717 -0.0508738 -0.0257845
-0.465593 -0.050958 -0.0258018
-0.462469 -0.0510441 -0.0258165
-0.459346 -0.0511302 -0.0258303
-0.456222 -0.051216 -0.0258434
-0.453098 -0.0513015 -0.0258562
-0.449974 -0.0513869 -0.0258692
-0.44685 -0.0514736 -0.0258803
-0.443726 -0.0515604 -0.0258906
-0.440602 -0.0516467 -0.0259005
-0.437478 -0.0517317 -0.0259109
-0.434355 -0.051813 -0.0259237
-0.431232 -0.0518982 -0.025934
-0.428109 -0.0519841 -0.0259434
-0.424986 -0.0520695 -0.0259525
-0.421863 -0.0521541 -0.0259618
-0.41874 -0.0522371 -0.0259721
-0.415616 -0.0523218 -0.0259809
-0.412493 -0.0524066 -0.025989
-0.409369 -0.0524911 -0.0259968
-0.406245 -0.0525741 -0.0260048
-0.403122 -0.0526521 -0.0260145
-0.399999 -0.0527353 -0.0260211
-0.396876 -0.0528197 -0.0260266
-0.393753 -0.0529036 -0.0260317
-0.39063 -0.0529867 -0.0260366
-0.387506 -0.0530671 -0.0260428
-0.384383 -0.0531504 -0.0260469
-0.381259 -0.053234 -0.0260504
-0.378136 -0.0533173 -0.0260536
-0.375012 -0.0533994 -0.0260568
-0.371888 -0.0534754 -0.0260624
-0.368765 -0.0535579 -0.0260652
-0.365642 -0.0536415 -0.026067
-0.362519 -0.0537249 -0.0260686
-0.359395 -0.0538075 -0.02607
-0.356271 -0.0538867 -0.0260725
-0.353147 -0.0539694 -0.0260732
-0.350023 -0.0540524 -0.0260735
-0.346899 -0.0541351 -0.0260735
-0.343775 -0.0542169 -0.0260735
-0.340652 -0.0542916 -0.0260759
-0.337528 -0.0543734 -0.0260759
-0.334405 -0.0544559 -0.0260755
-0.331281 -0.0545383 -0.0260749
-0.328157 -0.0546202 -0.0260743
-0.325033 -0.0546982 -0.0260748
-0.321909 -0.0547804 -0.0260744
-0.318785 -0.0548627 -0.026074
-0.315661 -0.0549449 -0.0260736
-0.312536 -0.0550269 -0.0260732
-0.309412 -0.0551012 -0.026075
-0.306288 -0.0551833 -0.0260759
-0.303164 -0.0552651 -0.0260766
-0.30004 -0.0553467 -0.026077
-0.296915 -0.0554282 -0.0260774
-0.29379 -0.0555056 -0.0260772
-0.290665 -0.055587 -0.0260759
-0.28754 -0.0556686 -0.0260741
-0.284415 -0.0557496 -0.026072
-0.28129 -0.0558302 -0.0260695
-0.278164 -0.055904 -0.0260682
-0.275038 -0.0559842 -0.0260656
-0.271911 -0.0560636 -0.0260626
-0.268785 -0.0561421 -0.0260592
-0.265659 -0.0562204 -0.0260552
-0.262528 -0.0562953 -0.0260508
-0.259398 -0.0563741 -0.0260438
-0.256267 -0.0564542 -0.0260351
-0.253137 -0.0565345 -0.0260217
-0.250006 -0.0566152 -0.0260036
-0.247107 -0.0566883 -0.0259846
-0.244209 -0.0567644 -0.0259648
-0.241311 -0.0568406 -0.0259446
-0.238413 -0.0569168 -0.0259239
-0.235734 -0.0569872 -0.0259047
-0.235468 -0.0569942 -0.0259029
-0.235202 -0.0570011 -0.0259011
-0.234936 -0.0570081 -0.0258992
-0.23467 -0.0570151 -0.0258974
-0.234403 -0.0570221 -0.0258957
-0.23128 -0.0571039 -0.0258745
-0.228156 -0.0571832 -0.0258553
-0.225032 -0.0572604 -0.0258404
-0.221908 -0.0573364 -0.0258329
-0.218786 -0.057411 -0.025833
-0.215661 -0.0574816 -0.0258388
-0.212537 -0.0575509 -0.025849
-0.209412 -0.0576175 -0.0258635
-0.206288 -0.0576816 -0.0258824
-0.203163 -0.057743 -0.0259036
-0.200038 -0.0578007 -0.0259245
-0.196913 -0.0578562 -0.0259464
-0.193788 -0.0579098 -0.0259704
-0.190663 -0.0579613 -0.0259977
-0.187538 -0.0580107 -0.0260283
-0.184407 -0.0580578 -0.0260615
-0.181276 -0.0581036 -0.0260949
-0.178146 -0.0581488 -0.0261282
-0.175015 -0.0581933 -0.0261613
-0.171884 -0.0582371 -0.0261942
-0.168757 -0.0582818 -0.026227
-0.16563 -0.058327 -0.0262581
-0.162502 -0.0583724 -0.0262868
-0.159375 -0.0584178 -0.0263121
-0.156248 -0.0584633 -0.0263338
-0.153122 -0.0585079 -0.0263524
[...]
POINT_DATA 996
 FIELD attributes 1
U 3 996 float
30.6297 	0.93686 	-3.90285 30.6325 	0.938205 	-3.90187 30.6352 	0.93955 	-3.90089 30.638 	0.940894 	-3.89991 30.4165 	0.937756 	-3.86083 30.1168 	0.933052 	-3.80848 30.6498 	0.949999 	-3.88675 30.6521 	0.95314 	-3.87976 30.6545 	0.956281 	-3.87279 30.6568 	0.959421 	-3.86581 30.6592 	0.962562 	-3.85885 30.6814 	0.97487 	-3.81128 30.7034 	0.987318 	-3.76401 30.7251 	0.999907 	-3.71702 30.7465 	1.01264 	-3.67031 30.7409 	1.04477 	-3.65848 30.7636 	1.0161 	-3.62933 30.7644 	1.02565 	-3.59353 30.7635 	1.03534 	-3.5573 30.7623 	1.04518 	-3.52123 30.7624 	1.03335 	-3.48549 30.7858 	1.04801 	-3.49249 30.7617 	1.04997 	-3.50199 30.7421 	1.05212 	-3.51055 30.7572 	1.05578 	-3.51231 30.7321 	1.0739 	-3.51658 30.769 	1.03894 	-3.53741 30.7965 	1.03809 	-3.52637 30.8239 	1.03725 	-3.51542 30.0634 	1.00519 	-3.39881 26.9583 	0.945397 	-2.92483 28.778 	0.948572 	-3.17571 29.731 	0.97746 	-3.25782 30.6764 	1.0061 	-3.33912 31.0028 	1.01668 	-3.34012 31.0272 	1.01842 	-3.30321 31.0314 	1.0182 	-3.29599 31.0356 	1.01798 	-3.28877 31.0398 	1.01776 	-3.28157 31.044 	1.01754 	-3.27437 31.0464 	1.01249 	-3.27317 31.0615 	0.99932 	-3.24538 31.0689 	0.981195 	-3.22349 31.0761 	0.963014 	-3.20176 31.0833 	0.944776 	-3.18018 31.0998 	0.937223 	-3.15639 31.1045 	0.931729 	-3.15438 31.1105 	0.931092 	-3.14978 31.1164 	0.930456 	-3.14519 31.1224 	0.929821 	-3.14061 31.0454 	0.927239 	-3.12613 29.2731 	0.881879 	-2.89533 27.4908 	0.836396 	-2.66353 25.697 	0.790777 	-2.4306 23.8902 	0.745005 	-2.19638 22.8973 	0.675277 	-2.03904 23.3285 	0.720616 	-2.20214 23.157 	0.689179 	-2.17271 23.9851 	0.712875 	-2.24944 24.8125 	0.736547 	-2.32612 23.5672 	0.637328 	-2.08845 26.5173 	0.769746 	-2.43823 27.3635 	0.778751 	-2.48467 28.1957 	0.787249 	-2.52977 29.0146 	0.795266 	-2.5736 26.8102 	0.61 	-2.31798 29.6749 	0.777517 	-2.59142 30.3577 	0.759023 	-2.62341 31.0222 	0.739937 	-2.65379 31.326 	0.706634 	-2.64069 28.5322 	0.550322 	-2.24974 31.3365 	0.621136 	-2.57378 31.3423 	0.580089 	-2.53989 31.348 	0.539155 	-2.50653 31.3534 	0.49833 	-2.47368 31.3581 	0.46181 	-2.44467 31.3584 	0.452137 	-2.43965 31.3588 	0.442443 	-2.43465 31.3591 	0.432728 	-2.42967 31.3597 	0.423402 	-2.43 31.3553 	0.386365 	-2.42715 30.1937 	0.416316 	-2.2948 27.6188 	0.396213 	-2.02946 25.0229 	0.376351 	-1.76254 22.4015 	0.356784 	-1.4937 21.7087 	0.216843 	-1.43641 24.0244 	0.227752 	-1.80971 23.1123 	0.198588 	-1.74676 23.7416 	0.160503 	-1.7779 24.5018 	0.122323 	-1.82058 20.3821 	0.0421803 	-1.30592 26.1313 	0.0115591 	-1.88705 26.8609 	-0.0166905 	-1.88817 27.5657 	-0.044992 	-1.88742 28.0534 	-0.06088 	-1.89407 23.9271 	-0.129247 	-1.43986 28.5188 	-0.14294 	-1.84051 28.7968 	-0.161834 	-1.81359 29.1749 	-0.188331 	-1.77571 29.5245 	-0.214594 	-1.73625 24.8998 	-0.187604 	-1.26823 29.8932 	-0.315077 	-1.65259 30.1379 	-0.340725 	-1.60275 30.3545 	-0.366109 	-1.55135 30.5434 	-0.391232 	-1.49842 27.2521 	-0.346976 	-1.15648 30.758 	-0.439395 	-1.41107 30.9308 	-0.461807 	-1.35694 31.077 	-0.48378 	-1.30182 31.197 	-0.505317 	-1.24573 27.7379 	-0.428789 	-0.937461 31.3581 	-0.560207 	-1.14658 31.4793 	-0.571839 	-1.10212 31.5811 	-0.583159 	-1.05699 31.6638 	-0.594167 	-1.01119 29.2698 	-0.518764 	-0.788793 31.6497 	-0.604163 	-0.914776 31.6324 	-0.599802 	-0.868431 31.6148 	-0.595754 	-0.822714 31.5969 	-0.592014 	-0.777615 29.8931 	-0.526988 	-0.636486 31.5538 	-0.578592 	-0.690251 31.5322 	-0.571496 	-0.652017 31.5103 	-0.564633 	-0.614264 31.488 	-0.557999 	-0.576987 30.8693 	-0.530847 	-0.504526 31.4458 	-0.547796 	-0.516712 31.4273 	-0.545227 	-0.496485 31.4087 	-0.542755 	-0.47646 31.3899 	-0.540378 	-0.456635 31.3656 	-0.537455 	-0.43148 31.363 	-0.537269 	-0.428967 31.3605 	-0.537084 	-0.426458 31.3579 	-0.536899 	-0.423952 31.3554 	-0.536716 	-0.42145 31.3528 	-0.53684 	-0.421053 31.3324 	-0.537306 	-0.40243 31.3116 	-0.538148 	-0.385969 31.2905 	-0.539457 	-0.372257 31.2689 	-0.541441 	-0.362617 31.246 	-0.54458 	-0.35892 31.2425 	-0.545214 	-0.353138 31.2362 	-0.547008 	-0.352047 31.2299 	-0.548802 	-0.350959 31.2237 	-0.550599 	-0.349873 31.2175 	-0.552354 	-0.348817 31.2063 	-0.55564 	-0.343397 31.1951 	-0.558933 	-0.337974 31.1838 	-0.562234 	-0.332549 31.1726 	-0.565542 	-0.327121 31.1578 	-0.567565 	-0.327706 31.1506 	-0.577538 	-0.32011 31.1392 	-0.586499 	-0.318063 31.1278 	-0.595467 	-0.31599 31.1164 	-0.604442 	-0.31389 31.0982 	-0.612272 	-0.327644 31.1019 	-0.62155 	-0.313793 31.0971 	-0.630078 	-0.313087 31.0923 	-0.63861 	-0.312357 31.0876 	-0.647149 	-0.311604 31.066 	-0.651002 	-0.328885 31.0821 	-0.660342 	-0.309299 31.0793 	-0.66627 	-0.305687 31.0764 	-0.672208 	-0.302064 31.0735 	-0.678154 	-0.29843 31.0522 	-0.683217 	-0.320853 31.0683 	-0.68782 	-0.292265 31.0627 	-0.692584 	-0.287245 31.057 	-0.697358 	-0.282218 31.0512 	-0.702143 	-0.277186 31.0132 	-0.702908 	-0.295863 31.0421 	-0.710881 	-0.270792 31.0349 	-0.716068 	-0.266412 31.0277 	-0.721263 	-0.262027 31.0204 	-0.726468 	-0.257634 30.986 	-0.733099 	-0.283464 31.009 	-0.735507 	-0.252089 30.998 	-0.735196 	-0.245569 30.9868 	-0.734896 	-0.239056 30.9756 	-0.734606 	-0.232549 30.9226 	-0.732676 	-0.248337 30.9601 	-0.74355 	-0.228333 30.9472 	-0.754958 	-0.227263 30.9342 	-0.766369 	-0.226173 30.9213 	-0.777781 	-0.225061 30.8747 	-0.788285 	-0.251392 30.9117 	-0.805728 	-0.234473 30.9108 	-0.837302 	-0.243188 30.9101 	-0.868849 	-0.251838 30.9095 	-0.90037 	-0.260424 30.8543 	-0.918323 	-0.279209 30.9163 	-0.93811 	-0.268533 30.9259 	-0.944099 	-0.266133 30.9355 	-0.950095 	-0.263727 30.9451 	-0.956097 	-0.261315 30.9111 	-0.962816 	-0.280722 30.9634 	-0.954536 	-0.252921 30.9665 	-0.934308 	-0.238417 30.9691 	-0.913343 	-0.223784 30.9715 	-0.892404 	-0.209194 30.9041 	-0.888083 	-0.203071 30.9816 	-0.886025 	-0.191152 30.9717 	-0.873604 	-0.180465 30.9615 	-0.861187 	-0.169802 30.949 	-0.85027 	-0.161443 30.8811 	-0.831885 	-0.170815 30.9475 	-0.852917 	-0.145191 30.949 	-0.853497 	-0.136476 30.9375 	-0.849806 	-0.130281 30.9057 	-0.846082 	-0.126178 30.8097 	-0.842261 	-0.128717 30.897 	-0.857421 	-0.109439 30.9142 	-0.858542 	-0.101664 30.9023 	-0.853844 	-0.0986612 30.8702 	-0.840237 	-0.102771 30.786 	-0.801348 	-0.126218 30.8688 	-0.84187 	-0.101341 30.8856 	-0.850019 	-0.0927442 30.8765 	-0.84427 	-0.0906246 30.8417 	-0.835067 	-0.0915705 30.7357 	-0.8163 	-0.101 30.8421 	-0.836634 	-0.0867881 30.862 	-0.8385 	-0.0805722 30.8521 	-0.83398 	-0.0771256 30.8215 	-0.819153 	-0.0783788 30.7206 	-0.767054 	-0.0962491 30.8187 	-0.82166 	-0.064944 30.8343 	-0.832487 	-0.0540079 30.822 	-0.828415 	-0.0499 30.7857 	-0.818942 	-0.049185 30.663 	-0.789875 	-0.0607791 30.778 	-0.820371 	-0.0405259 30.7906 	-0.823901 	-0.0341566 30.7774 	-0.820803 	-0.0310936 30.7473 	-0.808151 	-0.0316167 30.6301 	-0.744985 	-0.0555213 30.7391 	-0.812495 	-0.0270247 30.748 	-0.82299 	-0.0182497 30.7346 	-0.820518 	-0.0148736 30.7021 	-0.812289 	-0.0140644 30.5662 	-0.774287 	-0.0246901 30.6912 	-0.812865 	-0.00719731 30.6946 	-0.815259 	-0.00269028 30.6805 	-0.812638 	1.8152e-05 30.6545 	-0.802595 	-3.53627e-06 30.523 	-0.729363 	-0.023245 30.6421 	-0.80333 	-7.32073e-05 30.6424 	-0.809262 	0.00403216 30.6287 	-0.807674 	0.00564349 30.6034 	-0.802753 	0.00557823 30.4563 	-0.760116 	-0.00475699 30.5909 	-0.804808 	0.00461756 30.5853 	-0.805481 	0.00387736 30.5751 	-0.804505 	0.00388738 30.5625 	-0.801881 	0.00368247 30.4242 	-0.723975 	-0.0172514 30.5584 	-0.802733 	-0.00893695 30.5496 	-0.800101 	-0.00675497 30.5406 	-0.797405 	-0.00458008 30.5298 	-0.796941 	-0.00332785 30.3815 	-0.751829 	0.00196237 30.521 	-0.795938 	0.012878 30.5089 	-0.7958 	0.0168595 30.5016 	-0.79122 	0.0206143 30.4942 	-0.786618 	0.0243602 30.3587 	-0.7165 	0.0124684 30.4792 	-0.781913 	0.025487 30.4745 	-0.773632 	0.0294094 30.4697 	-0.765325 	0.0333189 30.455 	-0.763017 	0.0387329 30.3386 	-0.725108 	0.0423785 30.419 	-0.766296 	0.0684015 30.3911 	-0.777059 	0.0844904 30.3711 	-0.779744 	0.129878 30.3496 	-0.782217 	0.175165 30.2772 	-0.763413 	0.198934 30.2887 	-0.795546 	0.206437 30.2574 	-0.795237 	0.211286 30.2261 	-0.794894 	0.216145 30.1965 	-0.793185 	0.216114 30.1726 	-0.789279 	0.207517 30.1696 	-0.790187 	0.206352 30.1665 	-0.791093 	0.205188 30.1635 	-0.791999 	0.204024 30.1605 	-0.792903 	0.202861 30.0332 	-0.786316 	0.203377 30.1413 	-0.765089 	0.185465 30.1178 	-0.744611 	0.143887 30.0864 	-0.731893 	0.0715581 30.0579 	-0.718651 	-0.000420285 28.891 	-0.652659 	-0.0541782 30.0525 	-0.665968 	-0.0979997 30.0627 	-0.641421 	-0.139613 30.0744 	-0.616744 	-0.181254 30.0842 	-0.591182 	-0.204959 28.553 	-0.526918 	-0.190633 30.1016 	-0.535202 	-0.211254 30.1159 	-0.516008 	-0.230492 30.1379 	-0.496605 	-0.263216 30.161 	-0.477185 	-0.295881 28.6647 	-0.431132 	-0.303585 30.2047 	-0.441917 	-0.323018 30.2313 	-0.436023 	-0.321472 30.2578 	-0.430122 	-0.319923 30.277 	-0.424039 	-0.318078 28.265 	-0.403787 	-0.295758 30.2948 	-0.437878 	-0.301612 30.3081 	-0.439937 	-0.278494 30.3267 	-0.440583 	-0.244667 30.3441 	-0.441255 	-0.210809 28.3181 	-0.404427 	-0.169127 30.349 	-0.452023 	-0.170941 30.349 	-0.450533 	-0.155433 30.3483 	-0.449084 	-0.139935 30.3454 	-0.448037 	-0.129257 27.9502 	-0.398457 	-0.104916 30.3328 	-0.442384 	-0.122108 30.33 	-0.438068 	-0.116047 30.3307 	-0.43423 	-0.107922 30.3311 	-0.430411 	-0.0998043 28.3516 	-0.38061 	-0.0822963 30.3348 	-0.4262 	-0.0838956 30.355 	-0.42437 	-0.0700844 30.3747 	-0.422578 	-0.0562966 30.3864 	-0.417357 	-0.0468635 29.0338 	-0.382987 	-0.0296226 30.3773 	-0.405936 	-0.0409822 30.3619 	-0.39709 	-0.0480528 30.3467 	-0.388224 	-0.0551305 30.3408 	-0.382994 	-0.0593125 30.3376 	-0.378928 	-0.0625635 30.3362 	-0.385932 	-0.0622852 30.3348 	-0.39294 	-0.0620028 30.3334 	-0.399951 	-0.0617165 30.332 	-0.406965 	-0.0614261 30.2355 	-0.381808 	-0.0800353 30.2044 	-0.445052 	-0.140503 25.2091 	-0.384668 	-0.124454 19.5216 	-0.291442 	-0.082453 20.5832 	-0.303856 	-0.0832131 19.3561 	-0.265002 	-0.0423388 21.9559 	-0.320034 	-0.0653743 22.1686 	-0.321927 	-0.0528674 22.3758 	-0.323738 	-0.0403354 22.6708 	-0.328441 	-0.0384587 20.1587 	-0.278346 	0.0117217 23.0893 	-0.337104 	-0.0316454 23.0631 	-0.33516 	-0.0273977 23.1703 	-0.332375 	-0.0154827 23.273 	-0.32953 	-0.00357686 20.8558 	-0.267715 	0.0313913 23.2616 	-0.304833 	0.01734 23.2964 	-0.300027 	0.0206109 23.331 	-0.29522 	0.0238639 23.1128 	-0.290194 	0.0271256 20.825 	-0.256993 	0.0567491 22.5786 	-0.281342 	0.0321003 22.394 	-0.278026 	0.0336962 22.4376 	-0.276011 	0.0334217 22.4821 	-0.274009 	0.0331366 21.1478 	-0.245269 	0.0439674 22.4617 	-0.267413 	0.0332806 22.4462 	-0.262511 	0.0328283 22.4322 	-0.25763 	0.0323573 22.292 	-0.253817 	0.0331042 21.0389 	-0.236067 	0.0476735 21.9038 	-0.246609 	0.036541 21.7725 	-0.242439 	0.0362399 21.7098 	-0.235075 	0.032861 21.6509 	-0.227757 	0.0294515 21.1515 	-0.212607 	0.0295048 21.4812 	-0.213178 	0.0200532 21.3833 	-0.206304 	0.0134161 21.2907 	-0.199488 	0.00675218 21.1886 	-0.19487 	0.00319563 21.0377 	-0.193178 	0.00462066 21.038 	-0.19318 	0.00462684 21.0384 	-0.193181 	0.00463301 21.0388 	-0.193183 	0.00463918 21.0391 	-0.193185 	0.00464536 21.0387 	-0.193162 	0.00463449 21.0674 	-0.193027 	0.00508244 21.0992 	-0.191042 	0.00248817 21.1378 	-0.18617 	-0.0049185 21.1777 	-0.181317 	-0.0123411 20.8233 	-0.172533 	-0.0209445 21.2557 	-0.171634 	-0.0257339 21.2912 	-0.166822 	-0.0313412 21.3273 	-0.162023 	-0.0369604 21.3625 	-0.160431 	-0.0385497 21.1916 	-0.15512 	-0.0407846 21.4468 	-0.158694 	-0.0403113 21.4904 	-0.157277 	-0.0414657 21.529 	-0.152899 	-0.0456183 21.5679 	-0.148531 	-0.049779 20.4618 	-0.13606 	-0.0542585 21.6626 	-0.141175 	-0.0577434 21.7089 	-0.139117 	-0.0608002 21.7556 	-0.137066 	-0.0638618 21.8177 	-0.136573 	-0.0646144 21.483 	-0.129708 	-0.0675906 21.9481 	-0.135512 	-0.0661108 22.0039 	-0.135556 	-0.0665762 22.0496 	-0.135766 	-0.068476 22.0959 	-0.135982 	-0.0703786 20.3227 	-0.126184 	-0.0710489 22.2065 	-0.136217 	-0.0703527 22.2525 	-0.136338 	-0.0704988 22.2985 	-0.136458 	-0.0706449 22.3451 	-0.13642 	-0.0705596 21.8222 	-0.127354 	-0.0761947 22.4664 	-0.134955 	-0.0702581 22.5241 	-0.134465 	-0.0699001 22.578 	-0.132399 	-0.0686628 22.6309 	-0.130328 	-0.0674239 20.2501 	-0.116945 	-0.0685489 22.773 	-0.123022 	-0.0666027 22.8392 	-0.119513 	-0.0646605 22.9039 	-0.115998 	-0.0627154 22.9879 	-0.115324 	-0.0623388 22.3384 	-0.106459 	-0.0678857 23.1674 	-0.109735 	-0.0625188 23.2533 	-0.108945 	-0.0622136 23.3163 	-0.105526 	-0.0606672 23.3778 	-0.102104 	-0.0591189 20.416 	-0.094743 	-0.0591513 23.528 	-0.0948124 	-0.0575135 23.5855 	-0.0914954 	-0.0566396 23.6419 	-0.0881781 	-0.0557645 23.7192 	-0.0873572 	-0.0555998 22.8959 	-0.0821381 	-0.0618904 23.8913 	-0.0811338 	-0.0571385 23.9815 	-0.0798696 	-0.0574813 24.0408 	-0.0749966 	-0.0586347 24.0992 	-0.0701306 	-0.0597889 20.5044 	-0.0699558 	-0.0620446 24.2462 	-0.0570837 	-0.0700228 24.3009 	-0.0494443 	-0.0720554 24.3544 	-0.0418166 	-0.0740862 24.4184 	-0.0399487 	-0.0746467 23.4198 	-0.0379831 	-0.0799091 24.5925 	-0.0235088 	-0.0846879 24.7006 	-0.0207344 	-0.0853889 24.7713 	-0.00977173 	-0.0869144 24.8398 	0.00116977 	-0.0884305 20.7163 	-0.0151803 	-0.077551 25.0218 	0.0289438 	-0.101051 25.091 	0.0445719 	-0.101978 25.157 	0.0601712 	-0.102883 25.2629 	0.064449 	-0.1035 24.176 	0.0568468 	-0.0997709 25.4503 	0.0988252 	-0.122361 25.5718 	0.10673 	-0.122684 25.6213 	0.131607 	-0.122078 25.6655 	0.156407 	-0.121419 21.3546 	0.108241 	-0.0889694 25.7666 	0.225759 	-0.154603 25.7608 	0.259418 	-0.153871 25.7479 	0.292955 	-0.153014 25.8548 	0.305883 	-0.153249 24.7366 	0.270252 	-0.122963 25.732 	0.35706 	-0.191312 25.7147 	0.384121 	-0.164753 25.6512 	0.439949 	-0.110786 25.5653 	0.495327 	-0.0567211 21.7551 	0.414575 	0.0489308 24.9327 	0.679531 	-0.0268665 24.6375 	0.727581 	0.0254934 24.3157 	0.774954 	0.0780781 27.6361 	1.05069 	0.198869 31.0023 	1.33044 	0.323554 31.0013 	1.33087 	0.323123 31.0008 	1.33042 	0.323434 31.0003 	1.32997 	0.323745 30.9998 	1.32952 	0.324055 30.9994 	1.32906 	0.324366 30.9884 	1.31344 	0.328608 30.9775 	1.29786 	0.332776 30.9733 	1.31139 	0.338812 30.9721 	1.33804 	0.345769 30.9681 	1.34805 	0.349101 30.9968 	1.39657 	0.3929 31.0105 	1.42439 	0.433413 31.0327 	1.4454 	0.471494 31.0708 	1.45399 	0.505185 28.9624 	1.3142 	0.452068 31.1513 	1.53224 	0.585184 31.2057 	1.58458 	0.665475 31.2205 	1.63005 	0.737573 31.216 	1.67258 	0.805813 31.2253 	1.60734 	0.951332 31.2578 	1.77233 	1.1206 31.2245 	1.81242 	1.18575 31.2085 	1.87114 	1.2626 31.191 	1.93091 	1.34184 30.9771 	1.81843 	1.36923 31.0153 	1.98361 	1.37919 30.9814 	2.02911 	1.41318 30.9308 	2.04842 	1.45256 30.8903 	2.00144 	1.47289 30.8711 	1.82729 	1.46237 30.808 	2.00048 	1.56001 30.7514 	2.06527 	1.63319 30.6957 	2.05836 	1.68694 30.6232 	2.02992 	1.74077 30.4759 	1.90025 	1.79496 30.5058 	2.03875 	1.78939 30.435 	2.02765 	1.79989 30.3633 	2.01449 	1.81082 30.3323 	2.0166 	1.83103 30.2907 	1.91497 	1.82059 30.2061 	2.006 	1.82935 30.16 	2.00402 	1.81689 30.0963 	1.99443 	1.81148 30.0237 	1.98092 	1.80967 29.9473 	1.95489 	1.812 29.9366 	1.96493 	1.805 29.921 	1.9614 	1.80354 29.9053 	1.95788 	1.80207 29.8897 	1.95436 	1.8006 29.8738 	1.95078 	1.7991 29.8058 	1.96711 	1.78878 29.7436 	1.98616 	1.77615 29.6891 	2.00882 	1.7604 29.6348 	2.03125 	1.74484 29.5748 	1.98731 	1.76717 29.498 	2.05843 	1.70062 29.4188 	2.07783 	1.65124 29.3407 	2.09631 	1.60193 29.251 	2.10785 	1.56329 29.2356 	1.9436 	1.48331 29.0612 	2.10043 	1.42164 28.9818 	2.11004 	1.33708 28.9146 	2.12748 	1.24516 28.8524 	2.12163 	1.15689 28.8075 	1.99713 	1.08782 28.721 	2.09345 	0.937583 28.6811 	2.11296 	0.824573 28.6531 	2.11519 	0.719308 28.6303 	2.11264 	0.604625 28.6855 	1.97283 	0.470631 28.5992 	2.09165 	0.355743 28.6146 	2.0959 	0.233625 28.6314 	2.10121 	0.118402 28.6509 	2.1054 	0.00317145 28.6949 	2.06248 	-0.096798 28.7179 	2.1069 	-0.236145 28.7685 	2.11213 	-0.336432 28.8215 	2.11641 	-0.436738 28.8797 	2.11757 	-0.543461 28.9476 	2.10731 	-0.655833 28.9581 	2.11298 	-0.672256 28.9751 	2.11037 	-0.688186 28.9921 	2.10773 	-0.704122 29.0093 	2.10508 	-0.720063 29.0265 	2.1024 	-0.736052 29.1168 	2.09151 	-0.81881 29.1969 	2.08932 	-0.884645 29.2781 	2.0867 	-0.950425 29.3605 	2.08365 	-1.01615 29.4276 	2.0698 	-1.10707 29.5799 	2.08001 	-1.13812 29.6942 	2.07085 	-1.17215 29.8092 	2.06145 	-1.20624 29.9246 	2.05181 	-1.24038 29.991 	2.01263 	-1.2507 30.1393 	2.01884 	-1.22506 30.2414 	2.00079 	-1.21826 30.3328 	1.97705 	-1.21894 30.424 	1.95339 	-1.2198 30.4396 	1.88806 	-1.27343 30.605 	1.89851 	-1.20468 30.682 	1.8629 	-1.19762 30.7588 	1.82747 	-1.19076 30.8393 	1.79354 	-1.18419 30.915 	1.7491 	-1.18584 30.9901 	1.72704 	-1.16023 31.0474 	1.69471 	-1.14526 31.0929 	1.65752 	-1.12707 31.1382 	1.62051 	-1.10897 31.1963 	1.57293 	-1.08571 31.208 	1.56476 	-1.08012 31.2197 	1.5566 	-1.07453 31.2314 	1.54844 	-1.06897 31.2431 	1.54029 	-1.06341 31.2523 	1.53118 	-1.05909 31.3196 	1.48328 	-1.01838 31.3825 	1.43373 	-0.979479 31.4444 	1.38435 	-0.941036 31.5136 	1.34476 	-0.909636 31.5524 	1.29717 	-0.899242 31.6399 	1.27027 	-0.852618 31.6911 	1.22471 	-0.823666 31.714 	1.16255 	-0.789413 31.7359 	1.10043 	-0.755619 31.7367 	1.02588 	-0.732161 31.8156 	0.996572 	-0.658445 31.841 	0.929212 	-0.605817 31.8685 	0.865267 	-0.556196 31.9109 	0.818893 	-0.522567 31.7689 	0.68064 	-0.575098 31.9777 	0.723558 	-0.423174 32.0568 	0.703008 	-0.354748 32.0771 	0.652319 	-0.308349 32.0649 	0.581251 	-0.287708 32.0201 	0.488154 	-0.307482 32.1164 	0.488968 	-0.194566 32.1754 	0.465671 	-0.109159 32.1912 	0.413181 	-0.0710478 32.0622 	0.295471 	-0.127633 31.865 	0.145598 	-0.2226 32.0901 	0.16975 	-0.0635313 32.2795 	0.182159 	0.0732477 32.2845 	0.124573 	0.102515 32.2325 	0.0425069 	0.0781777 32.1728 	-0.0423324 	0.042898 32.2607 	-0.0615151 	0.144325 32.3315 	-0.0879296 	0.233013 32.3323 	-0.142119 	0.256552 32.1466 	-0.253691 	0.179171 31.9143 	-0.381405 	0.0773315 32.1821 	-0.355233 	0.246938 32.3678 	-0.352803 	0.371389 32.3762 	-0.418621 	0.403811 32.3303 	-0.501164 	0.404987 32.245 	-0.586553 	0.379149 32.3408 	-0.615057 	0.483521 32.3837 	-0.676599 	0.562286 32.3819 	-0.753758 	0.609169 32.3166 	-0.838427 	0.612852 32.0838 	-0.993932 	0.550307 32.3197 	-0.945359 	0.715637 32.3247 	-0.993437 	0.762753 32.3126 	-1.05626 	0.82159 32.3005 	-1.12112 	0.886491 32.194 	-1.19905 	0.895459 32.2522 	-1.22313 	0.997497 32.233 	-1.26887 	1.07033 32.2116 	-1.31528 	1.14252 32.1768 	-1.37058 	1.18878 32.0179 	-1.47595 	1.18649 32.101 	-1.47076 	1.29757 32.0697 	-1.51842 	1.35075 32.0631 	-1.55324 	1.43839 32.0541 	-1.5888 	1.5252 32.0308 	-1.62772 	1.60251 32.0353 	-1.62976 	1.6134 32.0338 	-1.63279 	1.62545 32.0322 	-1.63583 	1.6375 32.0306 	-1.63888 	1.64954 32.029 	-1.64181 	1.66109 32.0403 	-1.66622 	1.74505 32.0505 	-1.69116 	1.82849 32.0597 	-1.71663 	1.91144 32.0504 	-1.75386 	1.9698 31.9288 	-1.73778 	2.04761 32.0692 	-1.83485 	2.19112 32.0664 	-1.85633 	2.28192 31.9939 	-1.86804 	2.36278 31.9055 	-1.87936 	2.44066 31.5348 	-1.87337 	2.46288 31.7318 	-1.9066 	2.5673 31.6452 	-1.91224 	2.63343 31.5645 	-1.91828 	2.6992 31.5109 	-1.92475 	2.76438 31.3412 	-1.90028 	2.79811 31.3738 	-1.93373 	2.90287 31.3419 	-1.93071 	2.98536 31.3055 	-1.92824 	3.06683 31.2306 	-1.92803 	3.13735 31.0625 	-1.92853 	3.19039 31.0709 	-1.92795 	3.27704 31.0177 	-1.92212 	3.36123 30.9893 	-1.91528 	3.45979 30.959 	-1.90894 	3.55819 30.9202 	-1.90211 	3.65411 30.9188 	-1.90218 	3.66532 30.9143 	-1.90066 	3.67526 30.9097 	-1.89915 	3.6852 30.9052 	-1.89765 	3.69514 30.9006 	-1.89614 	3.70512 30.8892 	-1.89089 	3.74212 30.8776 	-1.8857 	3.77909 30.8656 	-1.8806 	3.81603 30.8525 	-1.87487 	3.85266 30.8307 	-1.86244 	3.88278 30.7998 	-1.86075 	3.9263 30.7652 	-1.85334 	3.9669 30.7289 	-1.84382 	4.00634 30.6925 	-1.83437 	4.04574 30.6584 	-1.7992 	4.08246 30.6133 	-1.8023 	4.16755 30.5351 	-1.7798 	4.24342 30.4547 	-1.75755 	4.31901 30.3723 	-1.73553 	4.39432 30.3045 	-1.66556 	4.44306 