# vtk DataFile Version 2.0
track0
ASCII
DATASET POLYDATA
POINTS 996 float
-1.001 -0.05 0.0011
-1.00075 -0.0499924 0.00106851
-1.00051 -0.0499849 0.00103703
-1.00026 -0.0499773 0.00100556
-1.00001 -0.0499697 0.000974104
-0.999764 -0.0499621 0.000942726
-0.999425 -0.0499516 0.000899841
-0.999086 -0.0499411 0.000856839
-0.998747 -0.0499305 0.000813916
-0.998408 -0.0499199 0.000771072
-0.998069 -0.0499093 0.000728296
-0.995314 -0.0498228 0.000381576
-0.992559 -0.0497353 3.93132e-05
-0.989803 -0.0496467 -0.000298525
-0.987046 -0.049557 -0.000631971
-0.984295 -0.0494663 -0.000960446
-0.981186 -0.0493607 -0.00133049
-0.978076 -0.049258 -0.00169736
-0.974966 -0.0491543 -0.00206066
-0.971855 -0.0490496 -0.00242034
-0.968748 -0.048944 -0.00277594
-0.965631 -0.0488393 -0.00312913
-0.962514 -0.0487332 -0.00348276
-0.959397 -0.0486268 -0.00383761
-0.95628 -0.0485201 -0.00419354
-0.953162 -0.0484131 -0.0045496
-0.949918 -0.0482997 -0.00492083
-0.946674 -0.0481902 -0.0052938
-0.943429 -0.0480808 -0.0056653
-0.940185 -0.0479717 -0.00603533
-0.93694 -0.0478632 -0.00640221
-0.934397 -0.047774 -0.00667806
-0.931855 -0.0476902 -0.0069586
-0.929312 -0.0476066 -0.00723718
-0.92677 -0.0475232 -0.00751395
-0.924295 -0.0474421 -0.00778059
-0.923806 -0.047426 -0.00783262
-0.923317 -0.04741 -0.00788454
-0.922829 -0.047394 -0.00793633
-0.92234 -0.0473779 -0.00798801
-0.921851 -0.0473619 -0.00803955
-0.918724 -0.0472599 -0.00836923
-0.915597 -0.0471593 -0.00869599
-0.912469 -0.0470605 -0.0090205
-0.909341 -0.0469636 -0.00934278
-0.906216 -0.0468686 -0.00966251
-0.905223 -0.0468387 -0.00976326
-0.90423 -0.046809 -0.00986393
-0.903238 -0.0467793 -0.00996444
-0.902245 -0.0467496 -0.0100648
-0.901248 -0.0467198 -0.0101654
-0.89881 -0.046647 -0.0104109
-0.896371 -0.0465735 -0.0106521
-0.893932 -0.0464993 -0.0108884
-0.891493 -0.0464242 -0.0111192
-0.889038 -0.0463477 -0.0113448
-0.886177 -0.0462633 -0.0115996
-0.883318 -0.046175 -0.0118695
-0.880458 -0.0460899 -0.0121378
-0.877599 -0.0460049 -0.012406
-0.874738 -0.04592 -0.0126742
-0.871645 -0.0458363 -0.0129483
-0.868553 -0.0457466 -0.0132326
-0.865461 -0.0456586 -0.0135133
-0.862369 -0.0455722 -0.0137908
-0.859275 -0.0454874 -0.0140652
-0.856183 -0.0454171 -0.0143325
-0.853092 -0.0453361 -0.0146025
-0.85 -0.0452588 -0.0148697
-0.846908 -0.045185 -0.0151342
-0.843816 -0.0451153 -0.0153948
-0.841716 -0.0450748 -0.0155604
-0.839617 -0.0450332 -0.0157328
-0.837518 -0.0449943 -0.0159029
-0.835419 -0.0449582 -0.0160708
-0.833535 -0.0449283 -0.0162193
-0.832469 -0.0449126 -0.0163025
-0.831403 -0.0448972 -0.0163854
-0.830336 -0.0448822 -0.0164682
-0.82927 -0.0448674 -0.0165509
-0.828203 -0.044853 -0.0166335
-0.824769 -0.0448107 -0.0168994
-0.821333 -0.0447634 -0.0171605
-0.817897 -0.0447141 -0.0174129
-0.814461 -0.0446624 -0.017655
-0.811005 -0.0446073 -0.0178854
-0.808124 -0.0445786 -0.018076
-0.805245 -0.0445513 -0.0182929
-0.802366 -0.0445265 -0.0185105
-0.799487 -0.0445071 -0.0187261
-0.796607 -0.0444927 -0.0189401
-0.793496 -0.0444862 -0.0191394
-0.790388 -0.0444849 -0.0193639
-0.787278 -0.0444868 -0.0195825
-0.784169 -0.0444919 -0.0197954
-0.781059 -0.0444986 -0.0200053
-0.777967 -0.0445153 -0.0201914
-0.774876 -0.0445308 -0.0203909
-0.771784 -0.0445482 -0.0205856
-0.768692 -0.0445682 -0.0207738
-0.765599 -0.0445906 -0.0209557
-0.762479 -0.0446141 -0.0211146
-0.759361 -0.044647 -0.021287
-0.756242 -0.0446823 -0.0214528
-0.753123 -0.0447199 -0.0216122
-0.750003 -0.0447599 -0.0217653
-0.746878 -0.0447996 -0.0218979
-0.743754 -0.0448443 -0.0220413
-0.740629 -0.0448909 -0.0221784
-0.737504 -0.0449396 -0.0223092
-0.734379 -0.0449902 -0.0224341
-0.731254 -0.0450385 -0.0225397
-0.72813 -0.0450943 -0.0226539
-0.725006 -0.0451511 -0.0227633
-0.721881 -0.0452088 -0.0228678
-0.718756 -0.0452674 -0.0229677
-0.715631 -0.0453228 -0.0230519
-0.712506 -0.0453824 -0.0231422
-0.709382 -0.0454417 -0.023228
-0.706257 -0.0455006 -0.0233093
-0.703131 -0.0455591 -0.0233862
-0.700006 -0.0456142 -0.0234527
-0.696881 -0.0456715 -0.0235211
-0.693756 -0.0457282 -0.0235857
-0.690631 -0.0457842 -0.0236466
-0.687507 -0.0458395 -0.0237039
-0.684866 -0.0458849 -0.0237471
-0.682226 -0.0459309 -0.0237904
-0.679585 -0.0459767 -0.0238322
-0.676945 -0.0460224 -0.0238722
-0.673561 -0.0460806 -0.0239214
-0.673225 -0.0460864 -0.0239261
-0.672889 -0.0460921 -0.0239307
-0.672553 -0.0460979 -0.0239352
-0.672217 -0.0461037 -0.0239398
-0.671881 -0.0461094 -0.0239443
-0.668755 -0.0461629 -0.0239863
-0.66563 -0.0462165 -0.0240264
-0.662505 -0.0462702 -0.0240649
-0.65938 -0.0463241 -0.0241021
-0.656255 -0.0463782 -0.0241383
-0.655217 -0.0463963 -0.0241503
-0.65418 -0.0464144 -0.024162
-0.653143 -0.0464326 -0.0241737
-0.652106 -0.0464508 -0.0241853
-0.651093 -0.0464686 -0.0241967
-0.649 -0.0465057 -0.0242201
-0.646907 -0.0465429 -0.0242431
-0.644814 -0.0465804 -0.0242658
-0.642721 -0.0466182 -0.0242881
-0.640628 -0.0466561 -0.02431
-0.637503 -0.0467131 -0.0243429
-0.634378 -0.046771 -0.024375
-0.631253 -0.0468299 -0.024407
-0.628128 -0.0468897 -0.0244387
-0.625003 -0.0469504 -0.0244702
-0.621877 -0.0470119 -0.0245031
-0.618752 -0.0470744 -0.0245347
-0.615627 -0.0471377 -0.0245661
-0.612502 -0.0472019 -0.0245975
-0.609377 -0.0472669 -0.0246288
-0.606252 -0.0473324 -0.0246619
-0.603126 -0.0473988 -0.024693
-0.600001 -0.0474658 -0.0247238
-0.596876 -0.0475334 -0.0247541
-0.593751 -0.0476016 -0.0247842
-0.590626 -0.0476704 -0.0248165
-0.5875 -0.0477396 -0.0248459
-0.584375 -0.0478092 -0.0248748
-0.581249 -0.0478794 -0.0249032
-0.578124 -0.0479501 -0.0249311
-0.574999 -0.0480209 -0.0249609
-0.571873 -0.0480925 -0.0249881
-0.568748 -0.0481646 -0.025015
-0.565622 -0.0482373 -0.0250414
-0.562497 -0.0483105 -0.0250673
-0.559371 -0.0483844 -0.0250959
-0.556245 -0.0484586 -0.0251213
-0.55312 -0.0485327 -0.0251461
-0.549994 -0.0486068 -0.0251702
-0.546868 -0.048681 -0.0251937
-0.543742 -0.048755 -0.0252188
-0.540616 -0.0488301 -0.0252418
-0.537489 -0.0489064 -0.0252648
-0.534363 -0.0489838 -0.0252876
-0.531237 -0.0490625 -0.0253104
-0.52811 -0.0491423 -0.0253359
-0.524984 -0.0492238 -0.0253596
-0.521858 -0.0493085 -0.0253842
-0.518731 -0.0493963 -0.0254096
-0.515604 -0.0494874 -0.025436
-0.512478 -0.0495805 -0.0254643
-0.509352 -0.0496753 -0.0254914
-0.506225 -0.0497708 -0.0255183
-0.503099 -0.0498668 -0.025545
-0.499973 -0.0499634 -0.0255714
-0.496847 -0.0500608 -0.0255998
-0.493721 -0.0501571 -0.0256253
-0.490594 -0.0502514 -0.0256494
-0.487468 -0.0503436 -0.025672
-0.484343 -0.0504337 -0.0256931
-0.481217 -0.0505235 -0.0257136
-0.478092 -0.0506129 -0.0257329
-0.474967 -0.050701 -0.0257511
-0.471842 -0.050788 -0.0257682
-0.468717 -0.0508738 -0.0257845
-0.465593 -0.050958 -0.0258018
-0.462469 -0.0510441 -0.0258165
-0.459346 -0.0511302 -0.0258303
-0.456222 -0.051216 -0.0258434
-0.453098 -0.0513015 -0.0258562
-0.449974 -0.0513869 -0.0258692
-0.44685 -0.0514736 -0.0258803
-0.443726 -0.0515604 -0.0258906
-0.440602 -0.0516467 -0.0259005
-0.437478 -0.0517317 -0.0259109
-0.434355 -0.051813 -0.0259237
-0.431232 -0.0518982 -0.025934
-0.428109 -0.0519841 -0.0259434
-0.424986 -0.0520695 -0.0259525
-0.421863 -0.0521541 -0.0259618
-0.41874 -0.0522371 -0.0259721
-0.415616 -0.0523218 -0.0259809
-0.412493 -0.0524066 -0.025989
-0.409369 -0.0524911 -0.0259968
-0.406245 -0.0525741 -0.0260048
-0.403122 -0.0526521 -0.0260145
-0.399999 -0.0527353 -0.0260211
-0.396876 -0.0528197 -0.0260266
-0.393753 -0.0529036 -0.0260317
-0.39063 -0.0529867 -0.0260366
-0.387506 -0.0530671 -0.0260428
-0.384383 -0.0531504 -0.0260469
-0.381259 -0.053234 -0.0260504
-0.378136 -0.0533173 -0.0260536
-0.375012 -0.0533994 -0.0260568
-0.371888 -0.0534754 -0.0260624
-0.368765 -0.0535579 -0.0260652
-0.365642 -0.0536415 -0.026067
-0.362519 -0.0537249 -0.0260686
-0.359395 -0.0538075 -0.02607
-0.356271 -0.0538867 -0.0260725
-0.353147 -0.0539694 -0.0260732
-0.350023 -0.0540524 -0.0260735
-0.346899 -0.0541351 -0.0260735
-0.343775 -0.0542169 -0.0260735
-0.340652 -0.0542916 -0.0260759
-0.337528 -0.0543734 -0.0260759
-0.334405 -0.0544559 -0.0260755
-0.331281 -0.0545383 -0.0260749
-0.328157 -0.0546202 -0.0260743
-0.325033 -0.0546982 -0.0260748
-0.321909 -0.0547804 -0.0260744
-0.318785 -0.0548627 -0.026074
-0.315661 -0.0549449 -0.0260736
-0.312536 -0.0550269 -0.0260732
-0.309412 -0.0551012 -0.026075
-0.306288 -0.0551833 -0.0260759
-0.303164 -0.0552651 -0.0260766
-0.30004 -0.0553467 -0.026077
-0.296915 -0.0554282 -0.0260774
-0.29379 -0.0555056 -0.0260772
-0.290665 -0.055587 -0.0260759
-0.28754 -0.0556686 -0.0260741
-0.284415 -0.0557496 -0.026072
-0.28129 -0.0558302 -0.0260695
-0.278164 -0.055904 -0.0260682
-0.275038 -0.0559842 -0.0260656
-0.271911 -0.0560636 -0.0260626
-0.268785 -0.0561421 -0.0260592
-0.265659 -0.0562204 -0.0260552
-0.262528 -0.0562953 -0.0260508
-0.259398 -0.0563741 -0.0260438
-0.256267 -0.0564542 -0.0260351
-0.253137 -0.0565345 -0.0260217
-0.250006 -0.0566152 -0.0260036
-0.247107 -0.0566883 -0.0259846
-0.244209 -0.0567644 -0.0259648
-0.241311 -0.0568406 -0.0259446
-0.238413 -0.0569168 -0.0259239
-0.235734 -0.0569872 -0.0259047
-0.235468 -0.0569942 -0.0259029
-0.235202 -0.0570011 -0.0259011
-0.234936 -0.0570081 -0.0258992
-0.23467 -0.0570151 -0.0258974
-0.234403 -0.0570221 -0.0258957
-0.23128 -0.0571039 -0.0258745
-0.228156 -0.0571832 -0.0258553
-0.225032 -0.0572604 -0.0258404
-0.221908 -0.0573364 -0.0258329
-0.218786 -0.057411 -0.025833
-0.215661 -0.0574816 -0.0258388
-0.212537 -0.0575509 -0.025849
-0.209412 -0.0576175 -0.0258635
-0.206288 -0.0576816 -0.0258824
-0.203163 -0.057743 -0.0259036
-0.200038 -0.0578007 -0.0259245
-0.196913 -0.0578562 -0.0259464
-0.193788 -0.0579098 -0.0259704
-0.190663 -0.0579613 -0.0259977
-0.187538 -0.0580107 -0.0260283
-0.184407 -0.0580578 -0.0260615
-0.181276 -0.0581036 -0.0260949
-0.178146 -0.0581488 -0.0261282
-0.175015 -0.0581933 -0.0261613
-0.171884 -0.0582371 -0.0261942
-0.168757 -0.0582818 -0.026227
-0.16563 -0.058327 -0.0262581
-0.162502 -0.0583724 -0.0262868
-0.159375 -0.0584178 -0.0263121
-0.156248 -0.0584633 -0.0263338
-0.153122 -0.0585079 -0.0263524
[...]
POINT_DATA 996
 FIELD attributes 2
p 1 996 float
-36.7366 -36.8252 -36.9137 -37.0022 -37.0462 -37.0746 -37.3785 -37.4704 -37.5623 -37.6544 -37.7466 -38.6687 -39.5933 -40.5201 -41.4493 -42.1421 -42.1081 -41.8376 -41.5333 -41.23 -41.1218 -41.3671 -41.4778 -41.626 -42.0692 -42.4843 -44.1093 -45.0832 -46.0573 -46.9974 -47.4989 -48.6342 -49.1839 -49.734 -50.2065 -50.6309 -50.7272 -50.8235 -50.9198 -51.0162 -51.1204 -51.5959 -52.0995 -52.6043 -53.1102 -53.7512 -53.9559 -54.1115 -54.2673 -54.4231 -54.5654 -54.684 -54.8024 -54.9206 -55.0385 -55.6515 -56.3109 -57.262 -58.0197 -58.7773 -59.669 -60.838 -61.2953 -61.752 -62.208 -61.7778 -61.5025 -61.2275 -60.9538 -60.6558 -60.1293 -60.253 -60.5127 -60.7736 -61.0354 -61.2713 -61.3393 -61.4075 -61.4761 -61.4671 -61.6893 -61.9769 -62.3384 -62.6993 -63.0597 -63.7139 -64.5618 -66.0948 -67.2395 -68.3532 -69.8259 -73.587 -74.4355 -75.283 -76.3977 -74.1839 -77.317 -77.5562 -77.7743 -77.9955 -76.421 -78.0429 -78.1414 -78.2433 -78.3485 -77.1936 -78.3256 -78.01 -77.6973 -77.3873 -76.1136 -76.3842 -75.7998 -75.2179 -74.6384 -73.3525 -73.4957 -72.9806 -72.4702 -71.9643 -71.171 -70.9141 -70.2689 -69.6284 -68.9923 -68.2745 -67.6597 -67.0583 -66.4578 -65.8582 -65.0908 -65.0149 -64.9391 -64.8632 -64.7874 -64.7179 -64.1716 -63.6302 -63.095 -62.5688 -62.0617 -61.9125 -61.7621 -61.6118 -61.4614 -61.3145 -61.0018 -60.6891 -60.3764 -60.0636 -59.7819 -59.4209 -59.0749 -58.7289 -58.3829 -58.1032 -57.9667 -57.8917 -57.8167 -57.7416 -57.759 -57.7632 -57.8471 -57.9309 -58.0147 -58.149 -58.0683 -58.0631 -58.0578 -58.0526 -58.1102 -57.9548 -57.8773 -57.7998 -57.7223 -57.7638 -57.574 -57.5108 -57.4476 -57.3845 -57.4528 -57.1598 -56.8599 -56.5601 -56.2603 -56.1278 -55.9592 -55.9283 -55.8976 -55.867 -55.9987 -56.1642 -56.8065 -57.4488 -58.091 -58.8441 -58.8448 -59.2752 -59.7063 -60.138 -60.7876 -60.5955 -60.523 -60.4509 -60.4273 -60.7493 -60.4024 -60.2107 -60.0334 -59.9556 -60.1948 -59.908 -59.8027 -59.7726 -59.7927 -59.9637 -59.8106 -59.8046 -59.8761 -59.9976 -60.2574 -60.2296 -60.2971 -60.3976 -60.5281 -60.7183 -60.7416 -60.7773 -60.8064 -60.8444 -60.9144 -60.81 -60.7577 -60.7245 -60.7384 -60.7855 -60.7194 -60.7003 -60.6934 -60.7037 -60.8048 -60.7007 -60.6596 -60.6114 -60.5514 -60.5433 -60.4173 -60.3733 -60.3257 -60.2643 -60.3427 -60.2442 -60.2316 -60.2306 -60.2324 -60.2927 -60.2889 -60.4334 -60.578 -60.7326 -61.0107 -61.2302 -61.3555 -61.4743 -61.5931 -61.5659 -61.6725 -61.8672 -62.062 -62.1388 -62.2493 -62.2551 -62.2757 -62.8061 -63.3356 -63.6155 -62.6317 -61.5617 -60.4918 -59.6709 -59.3467 -59.3084 -59.2701 -59.2319 -59.1936 -59.1756 -59.235 -58.6764 -57.3157 -55.9705 -54.824 -56.195 -56.9683 -57.7412 -58.4629 -58.9842 -59.8555 -60.5247 -61.3644 -62.2012 -62.2682 -63.6708 -64.8664 -66.0621 -66.9775 -67.6273 -68.5136 -69.2515 -70.1442 -71.0394 -71.8713 -71.5716 -71.5176 -71.464 -71.5181 -71.5985 -71.8408 -71.9717 -72.0546 -72.1377 -72.313 -72.4042 -72.5221 -72.6402 -72.7303 -72.7131 -72.6805 -72.8562 -73.032 -73.2006 -73.3602 -73.4446 -73.529 -73.6134 -73.6978 -74.0939 -75.4388 -75.736 -75.652 -76.0514 -75.9214 -76.1545 -76.0834 -76.0121 -76.1869 -75.843 -75.9613 -75.7814 -75.6776 -75.574 -75.453 -75.3381 -75.1329 -74.9278 -74.5672 -74.1162 -73.688 -73.5078 -73.3694 -73.2309 -73.1957 -73.2 -73.1628 -73.1257 -73.0834 -73.0276 -72.8636 -72.6571 -72.499 -72.3411 -72.151 -72.0304 -71.8964 -71.7626 -71.6101 -71.3857 -71.3843 -71.383 -71.3816 -71.3802 -71.379 -71.4989 -71.6003 -71.6726 -71.7451 -71.8348 -72.0606 -72.2904 -72.5203 -72.784 -73.0651 -73.3284 -73.5955 -73.8427 -74.09 -74.3662 -74.5929 -74.8303 -75.0677 -75.3213 -75.6036 -75.9029 -76.2195 -76.516 -76.8125 -77.1648 -77.538 -77.9249 -78.3117 -78.7214 -79.1351 -79.5126 -79.9112 -80.3012 -80.6913 -81.0881 -81.36 -81.6607 -81.9614 -82.2719 -82.5997 -82.7626 -82.9727 -83.181 -83.3893 -83.6615 -83.7841 -83.9888 -84.1935 -84.3878 -84.6598 -84.7651 -84.9456 -85.1756 -85.4056 -85.684 -85.8062 -86.1386 -86.4712 -86.7952 -87.2688 -87.5739 -88.0583 -88.5129 -88.9678 -89.533 -89.8303 -90.3977 -90.9655 -91.5368 -92.2652 -92.5804 -93.2808 -93.9869 -94.694 -95.5122 -95.8183 -96.7943 -97.7724 -98.8506 -100.301 -101.476 -104.044 -105.286 -106.537 -109.157 -107.437 -107.554 -107.684 -108.88 -110.157 -110.121 -110.084 -110.048 -110.011 -109.974 -108.641 -107.309 -106.699 -106.413 -106.644 -107.401 -108.175 -109.236 -110.808 -112.404 -113.061 -113.734 -114.099 -114.322 -114.717 -114.901 -114.038 -112.844 -111.528 -109.23 -105.068 -102.627 -100.569 -99.1711 -98.6762 -97.4046 -96.2639 -95.2102 -94.2156 -93.4843 -91.0115 -88.9057 -86.8051 -84.6498 -82.8736 -80.0126 -77.573 -75.3492 -73.2371 -71.2557 -70.7875 -70.4052 -70.0229 -69.6406 -69.2518 -67.6795 -66.0235 -64.2556 -62.4882 -60.9103 -58.5907 -56.1452 -53.6995 -51.4053 -48.2572 -45.0565 -42.7227 -40.3628 -38.0725 -36.1068 -33.9628 -32.8292 -31.9206 -30.9458 -30.644 -30.3229 -30.7551 -31.2205 -31.7002 -32.5732 -33.9037 -35.6502 -37.4089 -39.2789 -41.3265 -41.8045 -42.3357 -42.8672 -43.399 -43.9324 -46.5886 -48.8175 -51.0499 -53.2857 -55.6726 -58.9564 -62.363 -65.7716 -69.1822 -73.2496 -76.8954 -80.1866 -83.5037 -86.8218 -90.3185 -93.048 -95.9925 -98.9382 -101.799 -104.418 -106.199 -107.922 -109.91 -111.9 -114.472 -114.966 -115.46 -115.954 -116.448 -116.913 -118.691 -120.46 -122.234 -123.976 -125.718 -127.168 -128.72 -130.474 -132.232 -133.889 -135.327 -136.748 -138.157 -139.478 -141.021 -141.428 -142.092 -142.818 -143.574 -144.384 -144.886 -145.503 -146.116 -147.113 -148.367 -147.839 -147.468 -147.88 -148.686 -149.565 -149.503 -149.496 -149.907 -151.042 -152.327 -152.387 -152.597 -153.284 -153.988 -154.621 -155.194 -155.782 -156.335 -156.911 -157.802 -157.43 -157.638 -157.68 -157.667 -157.548 -157.549 -157.218 -156.895 -156.828 -156.817 -156.19 -155.792 -155.201 -154.618 -154.044 -153.983 -153.912 -153.84 -153.769 -153.701 -153.039 -152.381 -151.726 -151.304 -151.416 -151.558 -150.866 -149.998 -149.123 -147.962 -146.881 -145.809 -144.712 -143.501 -142.347 -141.508 -140.609 -139.714 -138.765 -137.929 -136.933 -135.904 -134.831 -133.766 -132.713 -132.584 -132.437 -132.289 -132.141 -131.993 -131.463 -130.935 -130.407 -129.881 -129.394 -128.755 -128.162 -127.588 -127.006 -126.332 -124.873 -123.499 -122.132 -120.774 -119.377 -117.75 -116.236 -114.558 -112.82 -111.09 -109.596 -108.023 -106.437 -104.857 -103.546 -103.392 -103.237 -103.083 -102.928 -102.77 -101.063 -99.3482 -97.6378 -96.0031 -94.5396 -92.3966 -90.5685 -88.8734 -87.3485 -86.0482 -84.8981 -83.717 -82.5179 -81.3227 -80.2824 -79.8257 -79.3695 -78.9139 -78.5002 -78.1361 -76.3315 -74.5552 -72.7107 -71.0592 -69.4332 -67.2189 -65.0391 -62.9105 -60.7915 -58.9234 -58.8689 -58.8143 -58.7598 -58.7135 -58.6725 -56.3711 -54.0925 -51.8269 -49.7046 -47.6328 -45.2771 -42.8091 -40.0391 -37.2074 -34.784 -34.4762 -34.1686 -33.8613 -33.5619 -33.2643 -29.6849 -26.2162 -22.9163 -19.3319 -15.6441 -13.9364 -12.2171 -9.73551 -7.25631 -5.02128 -2.96185 -0.915057 1.16633 3.85739 6.58223 11.0209 15.4869 20.7993 26.1464 30.8424 31.6439 32.4447 33.2442 34.0362 34.8316 41.4763 47.777 53.6321 59.4396 64.7765 66.0069 67.2371 68.5216 69.8123 71.0944 75.71 80.3247 84.7661 88.051 91.2065 94.0926 96.9784 99.5775 102.14 104.751 106.655 108.557 110.168 111.391 112.638 116.223 119.406 122.581 125.745 128.366 128.483 128.599 128.682 128.764 128.848 131.12 133.068 135.001 136.925 138.586 139.521 140.304 140.992 141.676 142.334 142.83 143.209 143.586 143.962 144.272 144.535 144.761 144.984 145.206 145.442 145.671 145.88 146.084 146.285 146.427 146.483 146.483 146.481 146.475 146.371 146.408 146.375 146.334 146.269 146.008 145.792 145.49 145.233 144.979 144.617 144.129 143.771 143.274 142.8 142.28 142.205 142.13 142.055 141.969 141.863 139.574 137.381 135.151 133.052 131.157 130.394 129.625 128.087 125.213 122.314 116.997 113.834 110.202 105.691 99.9532 96.1524 92.6269 89.4701 86.2981 83.2549 81.0193 79.1808 77.3161 74.9668 73.4473 69.0389 65.2569 62.1863 57.9334 53.3399 50.4525 47.845 45.646 43.5429 41.7843 38.2249 35.1405 32.4105 29.6816 26.8163 25.0794 23.1748 21.2918 19.5644 17.8656 16.7492 15.646 14.4918 13.3209 12.2617 11.4556 10.5674 9.69058 8.83151 8.0157 7.3959 6.88697 6.39607 5.92495 5.6559 5.22626 4.8498 4.47312 4.10112 3.66856 3.38133 3.1204 2.86647 2.61254 2.36138 2.02329 1.82119 1.61901 1.35074 1.08121 0.968337 0.853267 0.738198 0.622856 0.508216 0.458679 0.408183 0.357687 0.308808 0.260341 0.236765 0.212331 0.187898 0.163958 0.139969 0.126699 0.113046 0.0993934 0.0860497 0.0727599 0.0655878 0.0583449 0.051102 0.0442865 0.0376151 0.033983 0.0303433 0.0267035 0.0235043 0.0204168 0.0184615 0.0165436 0.0146258 0.0130973 0.0116792 0.0104959 0.00934589 0.00819584 0.00739435 0.00667127 0.00590684 0.00522722 0.00454759 0.00426703 0.00409705 0.00278833 0.00146023 0.000132119 8.49503e-05 7.60642e-05
k 1 996 float
0.554603 0.554735 0.554867 0.555 0.554599 0.554014 0.555043 0.555231 0.55542 0.555612 0.555805 0.557204 0.5587 0.560292 0.561979 0.568706 0.562169 0.567768 0.573937 0.580199 0.587959 0.592196 0.608253 0.622822 0.625949 0.640786 0.641617 0.643366 0.645163 0.644148 0.632967 0.637833 0.642466 0.647126 0.64906 0.649709 0.650077 0.650449 0.650823 0.6512 0.651995 0.661232 0.673293 0.685399 0.69755 0.701643 0.70182 0.701859 0.701904 0.701953 0.70193 0.699101 0.696387 0.693802 0.691363 0.684913 0.685085 0.680833 0.684599 0.688367 0.683834 0.700081 0.705197 0.710383 0.715635 0.695664 0.736442 0.745197 0.754 0.760382 0.744738 0.776145 0.78341 0.79083 0.798403 0.805329 0.810299 0.815279 0.82027 0.823195 0.829876 0.831146 0.824523 0.818193 0.812219 0.798558 0.815654 0.798688 0.800213 0.803447 0.781685 0.810138 0.812279 0.814582 0.812361 0.772738 0.827083 0.835119 0.839995 0.845043 0.815589 0.862689 0.86873 0.874941 0.881319 0.852955 0.903745 0.909888 0.916269 0.922887 0.899742 0.9411 0.947865 0.954817 0.961955 0.940822 0.978328 0.984422 0.990888 0.997722 0.988764 1.01391 1.02073 1.02788 1.03534 1.03448 1.04945 1.05619 1.06309 1.07015 1.07941 1.08041 1.08142 1.08243 1.08345 1.08459 1.09313 1.10221 1.11193 1.12253 1.13447 1.13407 1.13756 1.14105 1.14455 1.14797 1.15285 1.15776 1.16269 1.16766 1.1792 1.17878 1.18607 1.19335 1.20062 1.22085 1.21002 1.21783 1.22562 1.23339 1.27355 1.24413 1.25225 1.26039 1.26854 1.31258 1.27746 1.28649 1.29557 1.30469 1.3755 1.31491 1.32526 1.33563 1.34604 1.41301 1.35633 1.36777 1.3793 1.39091 1.48676 1.40193 1.41259 1.42322 1.43381 1.51664 1.44033 1.44823 1.45588 1.46328 1.58152 1.47011 1.4782 1.4863 1.49441 1.59596 1.49572 1.50165 1.50831 1.51528 1.67105 1.50979 1.51624 1.52292 1.53718 1.66864 1.53287 1.51704 1.52416 1.57392 1.75918 1.57175 1.52791 1.54357 1.59943 1.76027 1.5994 1.56501 1.58051 1.64788 1.85885 1.64988 1.60799 1.62387 1.67943 1.8678 1.68224 1.64833 1.66428 1.72697 1.95915 1.73119 1.6978 1.71369 1.7626 1.97498 1.7678 1.74194 1.75726 1.80925 2.05937 1.81543 1.79715 1.81136 1.84789 2.08138 1.85516 1.844 1.85763 1.89235 2.15726 1.9009 1.90459 1.91705 1.93398 2.18567 1.9438 1.95614 1.96872 1.98569 2.25097 2.00559 2.02097 2.03016 2.03952 2.27367 2.06863 2.08393 2.09941 2.11471 2.31111 2.16159 2.18721 2.21224 2.23923 2.34364 2.28959 2.30347 2.31754 2.33796 2.36758 2.37095 2.37433 2.3777 2.38106 2.37536 2.42197 2.45414 2.47941 2.50111 2.41887 2.53337 2.53834 2.54118 2.54703 2.43414 2.55857 2.56309 2.56261 2.56056 2.4265 2.56483 2.57077 2.57681 2.58375 2.44006 2.59963 2.60131 2.59958 2.59952 2.40561 2.60976 2.60904 2.60912 2.6158 2.44435 2.6436 2.64636 2.64187 2.63779 2.43284 2.63049 2.61654 2.60331 2.60184 2.50921 2.60797 2.61181 2.6155 2.60635 2.59418 2.58762 2.58105 2.57447 2.56788 2.65695 2.63499 2.41764 2.1751 2.20459 2.1105 2.18636 2.17805 2.16991 2.11898 2.08022 2.08467 2.09012 2.08368 2.07742 1.97193 2.0718 2.07037 2.06905 2.07044 2.03072 2.08037 2.08364 2.08227 2.08093 2.02482 2.08782 2.08702 2.0863 2.0908 2.04803 2.10735 2.11047 2.10875 2.10712 2.08416 2.10673 2.10497 2.10326 2.10469 2.11228 2.11234 2.11241 2.11247 2.11254 2.11264 2.12133 2.12709 2.12811 2.12908 2.13955 2.13047 2.13156 2.13263 2.13846 2.16062 2.15139 2.15708 2.15808 2.15908 2.19194 2.15933 2.16026 2.16117 2.16654 2.2042 2.17532 2.18087 2.18212 2.18335 2.2407 2.18375 2.18548 2.18721 2.19379 2.24955 2.20196 2.20844 2.21006 2.21175 2.29481 2.21134 2.2123 2.21335 2.21826 2.29014 2.22148 2.22501 2.22552 2.22612 2.33354 2.22428 2.22472 2.22523 2.22831 2.31718 2.22913 2.23076 2.23094 2.23119 2.36354 2.22946 2.23025 2.23114 2.23441 2.34052 2.23673 2.23755 2.23825 2.2391 2.39113 2.24041 2.24112 2.24208 2.24191 2.35235 2.2443 2.23818 2.23844 2.23909 2.38467 2.24877 2.24771 2.24715 2.23151 2.3139 2.23546 2.21721 2.20406 2.1922 2.27833 2.21723 2.21353 2.21132 2.27654 2.34742 2.3479 2.34813 2.34836 2.34859 2.34882 2.36079 2.37267 2.38284 2.39252 2.36834 2.38897 2.38898 2.38954 2.39032 2.33511 2.34359 2.31825 2.31065 2.31205 2.23947 2.28482 2.2967 2.29703 2.29397 2.2627 2.32139 2.33497 2.33909 2.30511 2.19055 2.26798 2.28964 2.28024 2.26318 2.20831 2.24313 2.24233 2.24067 2.22189 2.16898 2.20306 2.1905 2.1868 2.18769 2.18464 2.18848 2.18939 2.19029 2.19119 2.1921 2.19714 2.19852 2.19499 2.19141 2.17416 2.19362 2.19483 2.1956 2.20417 2.18635 2.22102 2.23106 2.23447 2.23167 2.19926 2.24805 2.25788 2.2587 2.25873 2.23944 2.2716 2.27527 2.27748 2.27871 2.26379 2.28897 2.29187 2.29392 2.29597 2.29666 2.29881 2.29893 2.29903 2.2991 2.29916 2.30233 2.3051 2.3074 2.30925 2.3009 2.30545 2.3044 2.3031 2.30157 2.27145 2.28362 2.27787 2.26994 2.26207 2.2378 2.23701 2.2307 2.22452 2.21644 2.1966 2.19138 2.18133 2.17487 2.16856 2.16063 2.1591 2.15758 2.15608 2.15459 2.15285 2.14225 2.13189 2.12195 2.10994 2.09923 2.0871 2.07642 2.07399 2.07196 2.06613 2.06129 2.0544 2.04694 2.0339 2.03387 2.0113 1.99451 1.99085 1.98716 1.97468 1.96551 1.9599 1.953 1.96746 1.99402 1.94528 1.90363 1.8992 1.8929 1.88518 1.874 1.86637 1.86631 1.91262 1.97135 1.89644 1.84419 1.84041 1.84014 1.84343 1.83456 1.82894 1.8278 1.84473 1.90573 1.83717 1.83383 1.83653 1.83982 1.85262 1.84195 1.84072 1.84041 1.846 1.88809 1.85571 1.8601 1.85142 1.84378 1.83988 1.83903 1.83862 1.83821 1.83783 1.83747 1.83023 1.82359 1.81755 1.82039 1.83044 1.8391 1.8384 1.8457 1.8558 1.90557 1.87509 1.88297 1.88865 1.88439 1.88139 1.88524 1.87206 1.86065 1.86425 1.87953 1.87521 1.87322 1.86427 1.85611 1.84906 1.84918 1.84879 1.84841 1.84804 1.84768 1.84597 1.84438 1.84292 1.84166 1.84146 1.84224 1.84422 1.84678 1.84922 1.8439 1.84518 1.84897 1.85345 1.85859 1.84944 1.85533 1.86291 1.85884 1.85053 1.83307 1.84334 1.83866 1.83092 1.82359 1.8156 1.8152 1.81481 1.81442 1.81379 1.81207 1.80862 1.80706 1.80647 1.80692 1.80873 1.80156 1.80356 1.80225 1.79481 1.7877 1.79449 1.79375 1.78841 1.78332 1.77923 1.77961 1.78004 1.78052 1.7766 1.7674 1.7722 1.77231 1.7718 1.76832 1.76435 1.76149 1.75263 1.74075 1.72931 1.71957 1.71931 1.71905 1.7188 1.71867 1.71863 1.71019 1.70293 1.69627 1.68284 1.67 1.67537 1.67611 1.66442 1.65611 1.65009 1.6494 1.64872 1.64804 1.64578 1.64314 1.63649 1.63055 1.62206 1.62523 1.62272 1.6175 1.6125 1.61276 1.61311 1.61173 1.60669 1.60187 1.59689 1.58704 1.57711 1.57879 1.57976 1.56764 1.55451 1.54312 1.54096 1.5388 1.53666 1.53456 1.53246 1.53222 1.53032 1.52194 1.50764 1.49034 1.49312 1.4959 1.49385 1.49125 1.48866 1.48875 1.48891 1.48707 1.475 1.4622 1.46758 1.47295 1.46759 1.46091 1.4541 1.45469 1.45527 1.45566 1.45138 1.44702 1.45198 1.44972 1.44735 1.44486 1.43682 1.43706 1.43729 1.43701 1.43672 1.43643 1.44224 1.43963 1.43677 1.43379 1.42581 1.42824 1.42642 1.4254 1.42431 1.42064 1.42138 1.42025 1.41911 1.41794 1.41575 1.41533 1.41396 1.41257 1.41115 1.40959 1.40832 1.40722 1.40608 1.40489 1.4067 1.40237 1.40081 1.39921 1.39757 1.4008 1.39486 1.39232 1.38996 1.38818 1.39308 1.38341 1.38058 1.37699 1.37317 1.38331 1.36873 1.36765 1.36584 1.3751 1.39094 1.3876 1.38427 1.38094 1.38168 1.38959 1.40591 1.43479 1.466 1.5058 1.55673 1.47666 1.3966 1.38657 1.49451 1.60536 1.54464 1.53565 1.54227 1.57639 1.45566 1.40433 1.3657 1.3478 1.33063 1.28704 1.30339 1.29433 1.28473 1.25745 1.21815 1.17414 1.11213 1.01359 0.982232 0.970839 0.941999 0.91421 0.88686 0.855469 0.809867 0.747888 0.641891 0.59948 0.557278 0.513667 0.515753 0.499855 0.484732 0.475129 0.454082 0.455223 0.447434 0.436453 0.424433 0.405188 0.404881 0.395287 0.387002 0.380728 0.367346 0.366064 0.357451 0.349272 0.341566 0.329091 0.300336 0.28729 0.274252 0.261727 0.250724 0.24785 0.244775 0.242018 0.239262 0.234336 0.229197 0.223542 0.217894 0.21818 0.218803 0.216945 0.215156 0.213367 0.21238 0.211519 0.209882 0.208249 0.206616 0.205665 0.204766 0.203315 0.201817 0.200319 0.199402 0.198479 0.197186 0.195805 0.194425 0.193539 0.192603 0.191444 0.190167 0.18889 0.188034 0.187094 0.186049 0.184863 0.183677 0.182851 0.181913 0.180965 0.17986 0.178755 0.177957 0.177027 0.176163 0.175131 0.174098 0.173326 0.172408 0.171617 0.170649 0.169682 0.168935 0.168033 0.167708 0.167241 0.166773 0.166406 0.165909
