# vtk DataFile Version 2.0
sampleSurface
ASCII
DATASET POLYDATA
POINTS 18239 float
7.37118e-05 -8.67362e-19 0.00245418
9.63548e-05 -4.33681e-19 -0.00548565
-0.00769806 -3.61401e-20 -0.00147063
0.00794388 0 -0.00158692
-0.00773518 7.22801e-20 0.0058872
0.00793362 0 0.00567492
-0.00364585 -4.33681e-19 0.00949261
0.00357675 0 0.00953232
-2.46316e-06 -4.33681e-19 0.0116078
-0.00772273 0 -0.00933631
-0.00197666 0 0.0120428
0.00786491 0 -0.00935682
0.00200081 0 0.0120951
-5.36449e-06 0 0.0124328
-0.00234888 4.33681e-19 0.0124008
0.00236663 4.33681e-19 0.0124564
-1.74039e-05 8.67362e-19 -0.013188
0.0120963 2.1684e-19 0.009396
-0.0120741 0 0.00966407
-0.015558 0 0.00259184
0.0157256 -4.33681e-19 0.00230339
-0.0154718 4.33681e-19 -0.00541726
0.0157243 -4.33681e-19 -0.0055977
0.0132846 -4.33681e-19 0.0123014
0.013665 -8.67362e-19 0.0119268
0.00791005 -1.4456e-19 -0.0163879
-0.0133933 0 0.0125481
-0.00778438 1.4456e-19 -0.0166214
-0.0137437 0 0.0122097
0.015671 4.33681e-19 0.0114686
-0.0156778 0 0.0117479
0.015668 0 0.0123255
-0.015681 0 0.0125176
-0.0155539 0 -0.0131551
0.0156306 0 -0.0131143
0.0191295 -2.1684e-19 0.00944697
0.0176898 0 0.0119661
-0.017569 -4.33681e-19 0.0121544
-0.0192721 4.33681e-19 0.00964984
-0.0179195 0 0.0124878
0.0180595 4.33681e-19 0.01234
7.17968e-05 1.0842e-19 -0.021994
-0.0232966 1.4456e-19 -0.00140161
0.0236024 2.89121e-19 -0.00173122
0.0236529 2.1684e-19 0.00470477
-0.0233759 -7.22801e-20 0.00605485
0.0235037 0 0.00679588
-0.0231601 0 -0.00933107
0.0235431 -4.69821e-19 -0.0093987
0.0156881 7.22801e-20 -0.0218273
0.00809462 4.33681e-19 -0.0256905
-0.00736353 8.67362e-19 -0.0261413
-0.0155647 3.61401e-20 -0.0225121
0.0235348 4.33681e-19 -0.016291
-0.0232773 0 -0.0168198
0.027923 0 0.00934127
-0.0278514 -4.33681e-19 0.00987277
7.58323e-05 -3.61401e-20 -0.0299653
-0.0311636 0 0.00273536
-0.03089 -8.67362e-19 -0.00549911
0.0289697 -4.33681e-19 0.0121552
0.0313541 4.33681e-19 0.00212258
0.029347 4.33681e-19 0.0117762
-0.0292135 0 0.0125974
0.0313532 -4.33681e-19 -0.00575138
-0.0295381 -4.33681e-19 0.0122929
0.0313174 0 0.0113089
-0.0307831 0 -0.0131362
-0.0313122 0 0.0118791
0.0313145 -4.33681e-19 0.0121694
0.0156907 0 -0.0297295
-0.0313167 0 0.0125703
0.0313247 0 -0.0131599
-0.0155614 3.61401e-20 -0.03046
0.00787564 0 -0.0337773
0.0235255 0 -0.0255749
-0.00772481 4.33681e-19 -0.034118
-0.0330406 0 0.0122396
0.0332879 4.33681e-19 0.0117972
-0.0333606 2.1684e-19 0.0125382
-0.0233948 -8.67362e-19 -0.0268943
0.0336536 0 0.012171
0.0346237 2.1684e-19 0.00936863
-0.0346626 -2.1684e-19 0.00989479
5.79873e-05 1.807e-20 -0.0378891
0.0312965 7.22801e-20 -0.0218455
-0.0311433 0 -0.0229178
-0.0390193 0 -0.00156665
0.0391935 -1.807e-19 -0.00186273
-0.0381468 1.4456e-19 -0.00944956
-0.0389377 0 0.00616431
0.0391748 -2.1684e-19 0.00444132
0.039142 2.1684e-19 0.00665929
0.0391963 -7.22801e-20 -0.00951071
0.015678 -3.61401e-20 -0.0376699
0.0234882 -4.33681e-19 -0.0336314
-0.0155725 -3.61401e-20 -0.038258
-0.0379996 0 -0.0170081
-0.0233795 4.33681e-19 -0.0345719
0.0391718 4.33681e-19 -0.0163177
0.0078662 -4.33681e-19 -0.0417652
-0.00774979 -8.67362e-19 -0.0420222
0.0313021 3.61401e-20 -0.0296718
-0.0311972 3.61401e-20 -0.0309365
0.0437374 0 0.00929172
-0.0436203 -2.1684e-19 0.0100544
4.40842e-05 0 -0.0458684
-0.0441645 8.67362e-19 -0.0131697
0.0446788 0 0.0119989
0.0450439 0 0.0116251
-0.0449381 2.1684e-19 0.0125565
-0.0466368 8.67362e-19 0.00286316
0.0391134 0 -0.0256174
-0.0452347 -2.1684e-19 0.012281
0.0469785 -4.33681e-19 0.00204148
-0.0468662 0 -0.00621121
0.0469785 -4.33681e-19 -0.00585833
-0.0390215 0 -0.0273976
0.0234815 4.33681e-19 -0.0416254
0.0469536 0 0.0111577
0.0156669 -1.807e-20 -0.04569
-0.0468371 0 0.0119074
-0.0233838 -4.33681e-19 -0.0423606
0.0469511 4.33681e-19 0.0120003
-0.0468437 0 0.0125273
-0.0155835 3.61401e-20 -0.0461389
0.0469479 -4.33681e-19 -0.0133452
0.0312953 3.61401e-20 -0.0375856
-0.0312058 1.807e-20 -0.0386643
-0.0484241 0 0.012225
0.0488558 0 0.0116306
-0.0487324 -2.1684e-19 0.012497
0.00785517 -4.33681e-19 -0.0497792
-0.00776557 8.67362e-19 -0.0499733
0.0492097 -4.33681e-19 0.011997
-0.0498686 4.33681e-19 0.0100733
0.0500966 6.50521e-19 0.00930639
0.050899 0 0.00431535
0.0391025 0 -0.0336186
0.0469135 0 -0.0220115
-0.0467018 -3.61401e-20 -0.0234239
-0.0390131 0 -0.0350342
3.38505e-05 3.61401e-20 -0.0538585
-0.0512022 0 -0.0175777
-0.054201 3.61401e-20 -0.00149426
-0.0534592 -2.1684e-19 -0.00987976
-0.0542603 4.33681e-19 0.0061529
0.0548491 -1.4456e-19 -0.00198023
0.0234741 4.33681e-19 -0.0496601
0.0547741 0 0.00653115
0.0312877 0 -0.0456027
-0.0233932 0 -0.0502255
0.0469174 -3.61401e-20 -0.029745
0.0548247 -1.4456e-19 -0.0096559
0.0156579 -3.61401e-20 -0.053718
-0.0312137 -1.807e-20 -0.0464534
-0.0155926 -1.807e-20 -0.0540591
-0.0468315 -5.42101e-20 -0.0314451
0.0390979 -4.33681e-19 -0.041585
0.0547886 1.4456e-19 -0.0164164
-0.0390158 0 -0.0427316
0.00784598 -4.33681e-19 -0.0577852
-0.00777652 0 -0.0579326
0.0588686 -4.33681e-19 0.00411351
-0.0589488 2.1684e-19 0.00985395
0.0469137 -1.807e-20 -0.0376053
0.0595582 2.1684e-19 0.00924969
0.0547318 -4.33681e-19 -0.0257431
-0.0468408 1.807e-20 -0.039098
-0.0546429 -4.33681e-19 -0.0279938
-0.0602611 2.1684e-19 0.0124037
0.0604206 2.1684e-19 0.0118249
-0.0616439 0 0.0027911
-0.0605866 0 0.0121041
2.59749e-05 9.03502e-21 -0.0618381
0.0607718 4.33681e-19 0.0114631
0.0312806 -1.807e-20 -0.0536388
-0.0619804 0 -0.00528884
0.0234672 0 -0.0576878
-0.0312208 9.03502e-21 -0.0542966
0.06261 0 0.00189917
-0.0234022 0 -0.0581209
0.0626023 -4.33681e-19 -0.00599037
0.0390931 0 -0.0496103
-0.0622721 0 0.0117006
-0.0622853 4.33681e-19 0.0123711
0.0625932 4.33681e-19 0.0110071
0.0156506 -2.71051e-20 -0.061729
0.0625913 -4.33681e-19 0.0118214
-0.0390224 8.67362e-19 -0.0505101
-0.0155999 -9.03502e-21 -0.0619874
0.0625645 -4.33681e-19 -0.0135243
-0.0621665 7.22801e-20 -0.0156893
0.0547224 0 -0.033693
-0.0546496 0 -0.0355218
-0.0640855 0 0.0120074
0.0643989 0 0.0114545
0.0469085 -1.807e-20 -0.0455918
-0.0645451 -4.33681e-19 0.0122964
0.0647381 -4.33681e-19 0.0118066
-0.0653819 2.1684e-19 0.00971543
0.0655265 -2.1684e-19 0.00926891
-0.0468454 -1.807e-20 -0.0467946
0.00783855 0 -0.065769
-0.00778486 8.67362e-19 -0.0658808
0.066223 4.33681e-19 0.00400193
0.0625328 0 -0.022217
0.0663849 0 -0.000122902
0.0664665 0 -0.00401655
0.0663749 4.33681e-19 -0.00796244
-0.0624031 0 -0.0243837
-0.0684482 3.61401e-19 -0.00137438
0.0547176 -4.33681e-19 -0.0416162
0.0312743 0 -0.0616614
0.0625366 3.61401e-20 -0.0298791
-0.031227 1.807e-20 -0.0621647
-0.0546502 8.67362e-19 -0.0431184
0.0390881 0 -0.0576383
-0.0690391 -1.4456e-19 -0.00941181
0.0234611 0 -0.0656911
1.98301e-05 0 -0.0697955
-0.02341 0 -0.0660212
0.0680567 4.33681e-19 -0.016699
-0.0390296 8.67362e-19 -0.0583357
-0.0624764 -3.61401e-20 -0.0320317
0.0704147 -4.33681e-19 -0.00212759
-0.070377 7.22801e-20 0.00628673
0.0704044 -4.33681e-19 0.00638664
0.046903 -5.42101e-20 -0.0536141
0.0704446 -5.78241e-19 -0.0110311
0.0156447 1.807e-20 -0.0697116
-0.0156058 9.03502e-21 -0.0699066
-0.0468501 1.807e-20 -0.0545569
0.0625342 1.807e-20 -0.0376851
-0.0703553 0 -0.0206487
0.0547137 -8.67362e-19 -0.0496146
-0.0624771 9.03502e-21 -0.0395433
0.00783262 0 -0.0737252
-0.00779135 0 -0.0738096
-0.0546532 -4.33681e-19 -0.0508098
0.0746484 -6.50521e-19 -9.52164e-05
0.0745729 -2.1684e-19 -0.00420408
0.0747995 4.33681e-19 0.00380443
-0.0747522 8.67362e-19 -0.00509123
0.0703507 -8.67362e-19 -0.0259036
0.0746586 4.33681e-19 -0.00792375
-0.0756133 0 0.00198615
-0.0702996 4.33681e-19 -0.0285822
0.0754303 4.33681e-19 0.00923154
0.0743657 4.33681e-19 -0.0156843
0.031269 -1.807e-20 -0.069656
0.0390834 -4.33681e-19 -0.0656463
-0.0755326 -4.33681e-19 0.0117887
-0.0312322 0 -0.0700382
-0.0390363 8.67362e-19 -0.0661816
-0.0760732 0 0.011315
0.0761916 -2.1684e-19 0.0116235
0.023456 -4.33681e-19 -0.0736639
0.0765201 0 0.0112815
0.0625302 1.807e-20 -0.0456313
0.0468977 -9.03502e-21 -0.061632
-0.0234163 0 -0.0739139
1.50353e-05 0 -0.0777276
-0.0468548 0 -0.0623602
0.0703435 0 -0.0338096
0.0782313 0 0.00176433
-0.0624776 -1.807e-20 -0.0471414
0.0782189 0 -0.0061263
-0.0702906 4.33681e-19 -0.0359874
0.0782239 0 0.0108453
0.0782225 0 0.0116093
0.01564 -4.51751e-21 -0.0776636
-0.0785413 -4.33681e-19 0.0106837
-0.0156104 1.35525e-20 -0.0778102
0.0781791 4.33681e-19 -0.0137543
0.0547098 8.67362e-19 -0.0576284
-0.0786045 0 0.0116907
-0.0778833 1.807e-20 -0.0165861
-0.0546581 0 -0.0585638
0.0799097 0 0.0112648
0.0802275 0 0.0115971
0.0781526 -7.22801e-20 -0.0224563
0.0809283 2.1684e-19 0.00924407
0.0815548 0 0.00370326
0.0816615 0 -7.71597e-05
0.0703393 -4.33681e-19 -0.0416875
-0.0810473 0 0.0112932
0.0817189 4.33681e-19 -0.00432931
0.0816269 0 -0.00792566
0.00782788 0 -0.0816536
-0.00779646 0 -0.0817171
-0.0821881 1.4456e-19 -0.00242121
-0.0783494 1.4456e-20 -0.0250895
-0.0817597 0 -0.00997125
0.0625257 -1.807e-20 -0.0536284
-0.0819357 4.33681e-19 0.00867046
-0.0816054 0 0.0118095
-0.0702847 4.33681e-19 -0.0434935
0.0821528 -8.67362e-19 -0.0118484
-0.0624799 -4.51751e-21 -0.0548233
0.0390792 8.67362e-19 -0.0736257
0.0818671 0 -0.0157172
-0.0834858 1.73472e-19 0.00486303
0.0312646 1.35525e-20 -0.0776192
-0.0390421 0 -0.0740329
0.0781578 -1.807e-20 -0.03004
-0.0312364 0 -0.0779073
0.046893 -9.03502e-21 -0.0696272
-0.0468591 2.25875e-20 -0.0701833
-0.0783465 1.807e-21 -0.0325464
0.0234519 0 -0.0816061
-0.0234214 4.33681e-19 -0.0817944
0.054706 8.67362e-19 -0.0656302
1.13418e-05 0 -0.0856352
-0.0546636 4.33681e-19 -0.0663528
0.0860349 -2.1684e-19 -0.00225115
0.0703359 0 -0.049653
0.0860328 2.1684e-19 0.00625408
0.0860212 -4.33681e-19 -0.0100616
0.0781563 -1.807e-20 -0.0377922
-0.0702846 4.33681e-19 -0.0511057
0.0156364 -9.03502e-21 -0.0855867
-0.015614 -4.51751e-21 -0.0856965
0.0625211 -9.03502e-21 -0.061632
0.0859776 -4.33681e-19 -0.0185236
-0.0785689 9.03502e-22 -0.0399633
-0.0624832 4.51751e-21 -0.0625616
-0.0859042 -8.67362e-19 -0.0212544
0.0859704 0 -0.0260744
0.00782419 8.67362e-19 -0.0895567
-0.0078004 -8.67362e-19 -0.0896043
[...]
POINT_DATA 18239
FIELD attributes 1
U 3 18239 float
9.82935 0.103322 0.139071
10.2485 0.199082 0.0560578
19.5709 0.267354 -0.0638014
18.1863 0.276877 -0.134044
15.8436 -0.0619315 0.305824
14.9661 -0.0337914 0.238656
12.1054 -0.0473192 0.233667
11.7387 -0.0265044 0.187191
4.90409 0.0745368 0.0968884
20.353 0.749073 -0.0659367
5.71368 0.149538 0.11183
19.2328 0.686887 -0.13042
5.7243 0.141889 0.0988783
0 0 0
0 0 0
0 0 0
10.9892 0.144565 -0.000143956
11.8006 -0.0266441 0.188178
11.8612 -0.0463647 0.228954
10.4472 0.0987226 0.162747
9.04587 0.10414 0.105083
10.9122 0.209403 0.0761967
9.50624 0.188226 0.0325903
0 0 0
5.76566 0.142914 0.0995927
21.3419 0.0444269 -0.341017
0 0 0
22.039 0.349807 -0.283206
5.5534 0.145343 0.108693
4.93526 0.0746686 0.0865743
4.75307 0.0716884 0.0961388
0 0 0
0 0 0
11.432 0.175493 0.0171556
10.4687 0.129268 -0.0156991
11.3795 -0.00722292 0.148191
5.79865 0.134198 0.0843415
5.47253 0.14903 0.104977
12.0586 -0.0719244 0.235039
0 0 0
0 0 0
30.2663 0.308987 -0.332818
20.6796 0.24687 -0.041056
16.5985 0.282009 -0.155183
14.1379 -0.00897373 0.184112
16.4577 -0.0981628 0.320782
12.8813 -0.00817614 0.167748
21.0908 0.796724 -0.0263939
17.9006 0.638005 -0.122173
29.9596 0.225213 -0.283263
31.0102 0.244258 -0.0516463
31.1966 0.280766 -0.316237
30.5321 0.451437 -0.43807
20.5701 0.154798 -0.296569
22.4864 0.418674 -0.278884
11.2083 -0.00711426 0.145962
11.4678 -0.0684002 0.223522
31.5424 0.120255 -0.305344
10.892 0.0903624 0.170164
11.3657 0.217684 0.0846024
0 0 0
8.07749 0.0923873 0.0666049
5.6833 0.131528 0.0826636
0 0 0
8.63373 0.168746 0.0201309
5.10204 0.138941 0.0978699
4.81555 0.0671022 0.0638535
11.7306 0.192934 0.0154603
4.38085 0.0624165 0.083638
0 0 0
31.3961 0.114035 -0.286129
0 0 0
9.80103 0.135156 -0.0143039
31.7131 0.116724 -0.403909
31.9604 -0.0361514 -0.390628
30.8258 0.264634 -0.214117
32.0651 -0.0199019 -0.457922
5.01194 0.136838 0.0993866
5.65498 0.10547 0.0453896
0 0 0
31.4426 0.247451 -0.348205
0 0 0
10.8556 -0.019586 0.0415345
11.398 -0.0940893 0.230317
32.185 -0.0918083 -0.411283
29.844 0.312385 -0.348116
30.7267 0.481593 -0.528754
21.4776 0.232973 0.029064
15.4026 0.245705 -0.149967
21.01 0.841774 0.015494
16.7583 -0.138338 0.33863
13.2775 -0.0239557 0.0508008
12.122 -0.0218707 0.0463796
16.6976 0.566039 -0.076165
32.1029 -0.0968056 -0.418602
31.8575 -0.0310577 -0.506422
32.2593 -0.0929078 -0.457518
22.5768 0.487074 -0.331709
32.1547 -0.0399168 -0.492691
19.7912 0.244453 -0.23356
32.333 -0.159561 -0.37555
32.3936 -0.151464 -0.422599
31.3182 0.133595 -0.409993
31.833 0.0877433 -0.456174
10.6008 -0.0191263 0.0405597
10.7712 -0.0889152 0.217652
32.4168 -0.178174 -0.37774
11.8129 0.216058 0.00214675
0 0 0
5.48436 0.102288 0.0440201
0 0 0
11.0572 0.082279 0.171034
30.8269 0.298778 -0.3459
4.64045 0.126695 0.0920199
7.884 0.0854123 0.0344647
11.1371 0.217005 0.0868318
8.20632 0.154097 0.00623093
31.5584 0.204 -0.455137
32.2735 -0.161424 -0.405698
4.63725 0.0563706 0.0401341
32.3709 -0.181344 -0.372131
3.98241 0.0484568 0.0710583
32.4331 -0.15847 -0.456397
0 0 0
0 0 0
32.4543 -0.178909 -0.409843
9.17841 0.128501 -0.0200487
32.0474 -0.084868 -0.485322
32.3105 -0.109643 -0.496784
4.56855 0.111496 0.101915
5.43749 0.0851802 0.029096
0 0 0
32.4554 -0.200391 -0.344443
32.4876 -0.198553 -0.367799
0 0 0
10.4659 -0.114757 0.236791
10.3028 -0.0124182 0.00184886
12.9007 -0.0155496 0.00231507
31.8233 -0.00351593 -0.580171
29.8317 0.349827 -0.382934
30.8155 0.510739 -0.712096
32.2053 -0.0671897 -0.531186
32.4801 -0.20943 -0.341555
23.1474 0.630564 -0.487288
21.2546 0.234262 0.151851
21.6239 1.00361 0.00512985
16.7992 -0.184201 0.380083
14.4429 0.232314 -0.179026
32.4243 -0.201734 -0.363598
11.4628 -0.0138165 0.00205703
32.3398 -0.175832 -0.407411
32.5049 -0.204094 -0.391243
31.3126 0.148796 -0.469754
15.6654 0.509957 -0.104384
32.4561 -0.209494 -0.339769
32.4768 -0.187942 -0.448203
32.4987 -0.212216 -0.360973
31.9081 0.039961 -0.583644
32.249 -0.144649 -0.451985
19.0416 0.226364 -0.246785
32.4573 -0.170835 -0.505959
32.4808 -0.217381 -0.320131
32.4969 -0.219323 -0.333305
12.2454 -0.0147598 0.00219748
11.098 -0.121688 0.251091
32.0368 -0.0705715 -0.52021
9.96189 -0.0120073 0.00178769
30.8288 0.296299 -0.369242
32.3314 -0.135411 -0.551337
31.6709 0.126038 -0.726296
0 0 0
0 0 0
11.0811 0.0548306 0.128338
4.9417 0.120602 0.110239
32.4856 -0.224874 -0.316072
5.21188 0.081646 0.0278887
32.441 -0.206228 -0.365846
11.3632 0.145892 0.0453522
32.464 -0.216552 -0.330938
32.5078 -0.220586 -0.391304
7.20356 0.0808914 0.00567563
32.5059 -0.2248 -0.350697
7.58106 0.142015 -0.0145972
32.4155 -0.193483 -0.409491
4.27113 0.0330444 0.0541102
0 0 0
4.40691 0.0502207 0.0201828
32.4735 -0.222414 -0.314532
0 0 0
32.5139 -0.215517 -0.437921
32.4951 -0.229442 -0.330354
8.66307 0.119566 -0.0392379
28.9668 0.67544 -0.383895
31.8267 0.00197168 -0.584542
32.2163 -0.109176 -0.623277
5.20724 0.0711084 0.0589755
5.16376 0.0683172 0.00262002
32.3378 -0.16628 -0.441051
0 0 0
0 0 0
11.131 -0.181007 0.131434
9.63663 -0.00422146 -0.0457572
32.4833 -0.203718 -0.489063
32.4782 -0.228572 -0.300351
32.4864 -0.233128 -0.310132
11.9038 -0.00521464 -0.0565225
29.7854 0.337134 -0.427921
13.3771 0.224374 -0.199507
13.6882 0.229593 -0.204147
13.9382 0.445112 -0.152265
31.1387 0.253888 -0.623508
19.7511 0.106985 0.0745426
32.2614 -0.137009 -0.465924
32.4667 -0.219152 -0.330645
31.3042 0.145557 -0.497858
32.4984 -0.237758 -0.353964
32.4529 -0.192741 -0.544048
32.4604 -0.211353 -0.359698
21.506 0.0429697 -0.147053
32.4709 -0.226107 -0.306563
32.4796 -0.234369 -0.297713
32.4914 -0.239443 -0.326821
20.4038 0.242095 -0.324882
32.5069 -0.236056 -0.3845
32.0162 -0.0640143 -0.617616
13.171 0.220918 -0.196434
16.5703 -0.269457 0.19566
10.5753 -0.00463265 -0.0502141
32.4442 -0.200288 -0.396947
15.2526 0.487088 -0.166624
32.4746 -0.230416 -0.296124
32.4839 -0.24015 -0.309668
32.5089 -0.234476 -0.424937
32.0397 -0.0669397 -0.537125
31.1537 0.0502588 -0.237896
32.4285 -0.188023 -0.437832
32.3703 -0.185885 -0.5631
32.4755 -0.234877 -0.286684
32.4782 -0.240365 -0.293449
32.5109 -0.23355 -0.467399
12.6695 0.212506 -0.188954
12.9063 0.216477 -0.192485
11.251 -0.00492867 -0.0534228
11.2431 0.0684298 -0.0473665
30.7964 0.282333 -0.429515
13.125 0.419146 -0.143382
10.9099 0.0356169 -0.024457
31.8722 -0.074945 -0.553032
9.17484 -0.00401916 -0.0435645
14.9036 0.162558 -0.221771
32.4734 -0.22677 -0.306759
32.4714 -0.221612 -0.325414
0 0 0
32.4841 -0.248305 -0.329533
32.4896 -0.249776 -0.353405
7.52963 0.102822 0.085278
0 0 0
32.4736 -0.231594 -0.290766
4.86255 0.0643321 0.00246718
32.3493 -0.162036 -0.464736
32.4721 -0.214369 -0.352621
32.4795 -0.247141 -0.307999
32.4753 -0.240203 -0.285464
32.4967 -0.250059 -0.380682
31.8141 0.00155138 -0.607948
6.56882 0.0752522 -0.0125708
32.496 -0.23106 -0.501267
6.82747 0.128211 -0.0267083
32.3192 -0.201497 -0.564027
4.11221 0.0433012 0.00462837
0 0 0
32.4749 -0.23568 -0.284103
6.32779 0.0402517 -0.0493477
32.4754 -0.246323 -0.29529
8.03985 0.111981 -0.0525195
32.4729 -0.206604 -0.381133
0 0 0
30.1161 0.0816295 -0.335192
32.504 -0.251301 -0.409314
4.82132 0.0530617 -0.00193265
0 0 0
29.7287 0.330059 -0.477646
8.90445 -0.00436852 -0.0555954
10.9627 -0.00537833 -0.0684465
12.1702 0.201631 -0.181329
32.2684 -0.134968 -0.491713
7.78384 0.130138 -0.317847
12.4056 0.205531 -0.184836
12.6066 0.392825 -0.145553
32.4742 -0.240019 -0.27828
32.4732 -0.245287 -0.283313
20.9032 0.0844541 -0.240969
31.5553 -0.0152775 -0.511277
23.0378 0.0755119 -0.330628
32.4581 -0.196607 -0.420778
13.3047 -0.217093 -0.368845
0 0 0
32.497 -0.239103 -0.51996
14.637 0.456093 -0.168996
32.5122 -0.252874 -0.444831
32.4775 -0.227275 -0.304251
14.497 0.164381 -0.228275
20.3053 -0.465312 -0.491443
32.4775 -0.231674 -0.291401
32.476 -0.256394 -0.329663
31.288 0.141921 -0.540712
32.473 -0.254116 -0.312022
32.4805 -0.222325 -0.323419
32.4809 -0.258955 -0.352018
32.1617 -0.1597 -0.629804
32.4762 -0.235977 -0.280599
32.471 -0.252242 -0.296257
32.4834 -0.216977 -0.344337
32.4721 -0.244032 -0.276937
32.4863 -0.26234 -0.375192
11.9497 0.197977 -0.178043
32.442 -0.186323 -0.464482
9.74697 -0.00478186 -0.0608557
13.355 0.416147 -0.154195
32.0372 -0.0641381 -0.568362
32.524 -0.257359 -0.473142
32.4751 -0.239368 -0.275477
32.4691 -0.249999 -0.285316
32.4868 -0.210529 -0.371817
28.8627 0.375914 -0.510826
32.4462 -0.239599 -0.601081
32.4969 -0.264882 -0.403822
31.2016 0.0848219 -0.526586
30.7835 0.27819 -0.478085
32.4724 -0.242904 -0.270865
32.4687 -0.247785 -0.27522
32.4827 -0.231609 -0.289946
32.3591 -0.159523 -0.495305
11.527 0.190974 -0.171746
11.6636 0.193238 -0.173781
32.4864 -0.22739 -0.303928
32.4657 -0.260457 -0.314043
32.0306 -0.119926 -0.706615
10.3702 -0.00508762 -0.0647469
14.0269 0.437083 -0.161952
32.4895 -0.203937 -0.399997
11.8382 0.368883 -0.136682
32.4682 -0.263425 -0.33156
32.4808 -0.235059 -0.280383
32.4641 -0.257311 -0.299556
32.5266 -0.263574 -0.538916
10.7203 -0.174923 -0.297197
13.8527 0.157076 -0.218131
32.5099 -0.268289 -0.429115
32.4898 -0.222973 -0.319692
8.49064 -0.00416551 -0.0530118
32.4717 -0.266934 -0.34962
31.8025 0.00744816 -0.645971
32.4777 -0.238441 -0.272115
0 0 0
32.4634 -0.254549 -0.2864
0 0 0
4.55506 0.0501313 -0.00182592
5.90984 0.0988067 -0.241324
32.4166 -0.23953 -0.675845
32.4685 -0.246157 -0.270204
27.3815 -0.0591471 -0.696359
32.4955 -0.218438 -0.340065
6.02092 0.0685457 -0.0214488
27.9162 0.180215 -0.694759
6.16081 0.114891 -0.0293232
32.4783 -0.271494 -0.375617
3.85033 0.036685 -0.005415
0 0 0
32.4743 -0.241529 -0.268525
32.4732 -0.194339 -0.445902
7.43377 0.10579 -0.0557304
32.4628 -0.251801 -0.277449
30.3659 0.103675 -0.698875
4.5859 0.0548317 -0.109185
0 0 0
32.2741 -0.130989 -0.529377
32.5219 -0.276351 -0.485973
4.49219 0.0389333 -0.0183296
32.5011 -0.213739 -0.361928
0 0 0
32.5426 -0.269279 -0.612309
29.619 0.343676 -0.507259
32.4871 -0.277081 -0.401462
8.24926 -0.000232399 -0.0724373
5.60373 0.0829498 -0.183219
10.106 -0.000284707 -0.0887412
11.0956 0.182276 -0.165733
11.2305 0.184493 -0.167748
11.3687 0.349043 -0.131326
31.6902 -0.0525464 -0.773115
9.07442 0.150617 -0.224268
0 0 0
32.4912 -0.230867 -0.289647
32.4865 -0.234084 -0.278842
32.4695 -0.244585 -0.265388
32.4635 -0.249277 -0.269313
32.4575 -0.265608 -0.31679
32.4564 -0.261878 -0.301454
32.4955 -0.227475 -0.301818
13.5406 0.415724 -0.156415
13.4588 0.167463 -0.218551
31.2475 0.150698 -0.578625
32.4597 -0.269728 -0.33281
32.4825 -0.237124 -0.271796
32.4556 -0.258541 -0.289675
32.4548 -0.184151 -0.496594
32.249 -0.205561 -0.793405
32.5048 -0.207797 -0.391613
32.5015 -0.223595 -0.317379
32.463 -0.27411 -0.354048
32.5433 -0.28807 -0.550225
32.4776 -0.240109 -0.26571
32.4968 -0.282762 -0.443559
32.4557 -0.255519 -0.278828
32.0323 -0.0550422 -0.603909
32.4638 -0.246855 -0.265003
10.8153 0.177672 -0.161546
32.5076 -0.219633 -0.334355
8.98363 -0.000253088 -0.0788858
28.6223 0.450011 -1.12371
32.4825 -0.271587 -0.711571
12.1338 0.372531 -0.140164
26.7274 0.281228 -1.16692
32.4681 -0.279356 -0.376044
32.4718 -0.242413 -0.263024
30.141 0.18829 -0.987295
32.4558 -0.252182 -0.271525
28.6367 0.410388 -0.522414
32.5071 -0.201564 -0.422855
31.4608 0.0117714 -0.897434
32.5104 -0.291209 -0.491268
32.3703 -0.154122 -0.531426
32.4942 -0.233072 -0.278629
32.5147 -0.215489 -0.356951
32.4472 -0.265982 -0.304904
32.5 -0.230182 -0.287975
30.6665 0.296368 -0.516428
32.5348 -0.28983 -0.624079
32.4881 -0.235792 -0.270508
32.4469 -0.262151 -0.291987
32.4483 -0.27027 -0.318791
32.4729 -0.28583 -0.411885
32.4651 -0.244551 -0.261593
32.4571 -0.248967 -0.263711
32.1087 -0.18351 -0.956033
32.5066 -0.227193 -0.300256
32.482 -0.238142 -0.265331
32.4467 -0.258243 -0.281952
32.4497 -0.274941 -0.337644
10.5973 0.17409 -0.15829
12.8626 0.394908 -0.148583
9.64623 -0.000271755 -0.0847041
10.3064 0.169311 -0.153944
10.4154 0.319774 -0.120314
31.7797 0.0246144 -0.671386
12.7495 0.158637 -0.207033
9.33256 0.154902 -0.230648
7.70157 -0.00021697 -0.0676279
32.5133 -0.224088 -0.31367
0 0 0
32.4751 -0.240366 -0.259405
32.4468 -0.254927 -0.274238
32.4373 -0.280501 -0.838513
32.4525 -0.280286 -0.357629
32.4913 -0.190768 -0.474578
32.5215 -0.211164 -0.381823
5.78354 0.0856116 -0.189098
0 0 0
4.14569 0.0359303 -0.0169158
32.5159 -0.299108 -0.555079
32.4797 -0.294199 -0.452212
32.5158 -0.2994 -0.555958
27.0838 0.404498 -1.18107
32.5136 -0.299486 -0.551916
32.4581 -0.24881 -0.258434
5.605 0.0677844 -0.0271894
5.41138 0.102812 -0.0271805
32.2822 -0.121271 -0.570346
28.4848 0.346621 -1.16882
3.51716 0.0343621 -0.0135907
4.69716 0.0774417 -0.139739
0 0 0
0 0 0
32.521 -0.220597 -0.330896
6.82302 0.104907 -0.0491875
32.468 -0.244878 -0.256424
32.448 -0.254493 -0.264539
32.4539 -0.285821 -0.385831
32.5327 -0.297659 -0.720861
30.3906 0.0924048 -1.03479
4.10147 0.0380993 -0.0230985
32.495 -0.234321 -0.270158
32.5023 -0.232162 -0.27719
0 0 0
29.5371 0.379832 -0.524615
32.4365 -0.264979 -0.295561
32.437 -0.269575 -0.307352
5.9356 0.0690335 -0.235888
7.47232 0.0140088 -0.0729592
32.5265 -0.204786 -0.41428
32.4872 -0.236263 -0.265705
9.10562 0.202298 -0.331671
9.95385 0.170081 -0.1496
10.2409 0.174987 -0.153914
9.39013 0.0176042 -0.0916846
10.0561 0.306774 -0.0975466
32.4374 -0.260342 -0.282746
32.5101 -0.229576 -0.286886
0 0 0
31.7513 -0.111518 -1.00838
32.4371 -0.274224 -0.32379
32.4825 -0.30133 -0.501449
32.4727 -0.178501 -0.530222
32.5286 -0.217025 -0.349773
12.4803 0.380728 -0.121062
31.2336 0.163629 -0.65475
32.4801 -0.240156 -0.257426
12.571 0.203345 -0.1424
32.4565 -0.292531 -0.417687
32.4372 -0.259384 -0.2733
32.5178 -0.226918 -0.297569
32.5221 -0.309737 -0.629991
32.4384 -0.27941 -0.341292
32.2556 -0.249726 -0.957874
32.4616 -0.247948 -0.250248
32.4464 -0.255139 -0.255362
32.0249 -0.0372725 -0.665145
32.5262 -0.224239 -0.311066
32.438 -0.284935 -0.365145
32.4694 -0.245948 -0.249557
32.4393 -0.257644 -0.259789
32.4639 -0.302954 -0.827839
32.5377 -0.212794 -0.375276
32.5308 -0.197587 -0.448931
32.4504 -0.251261 -0.247871
26.3363 0.537567 -1.5148
9.63287 0.164597 -0.144775
28.484 0.543258 -1.47741
8.10619 0.0151972 -0.0791483
32.4875 -0.308592 -0.552225
11.0544 0.337228 -0.10723
32.455 -0.300957 -0.460476
30.0503 0.201848 -1.20495
32.4619 -0.247831 -0.245261
32.4379 -0.256923 -0.252421
32.5345 -0.221448 -0.325822
28.5663 0.510098 -0.420767
32.3828 -0.144015 -0.576496
32.5023 -0.233035 -0.267239
32.4245 -0.267821 -0.300149
32.4939 -0.236788 -0.26118
32.4384 -0.29103 -0.39188
32.4253 -0.266249 -0.285732
32.5113 -0.231046 -0.276392
32.4247 -0.272274 -0.312226
31.3915 -0.0375187 -1.08997
32.5051 -0.315149 -0.713479
30.7762 0.287587 -0.640299
32.5203 -0.228983 -0.284818
32.4578 -0.243568 -0.243067
32.4419 -0.249803 -0.244721
32.4248 -0.277599 -0.327693
32.0752 -0.223952 -1.09596
32.5467 -0.208102 -0.403668
32.4762 -0.242992 -0.245963
32.4259 -0.261107 -0.260481
32.4667 -0.242582 -0.239362
32.4333 -0.251676 -0.252107
32.4572 -0.3087 -0.501325
32.5441 -0.218113 -0.344903
32.4881 -0.239266 -0.251613
32.5296 -0.226749 -0.295412
32.4219 -0.265789 -0.272951
32.5139 -0.184987 -0.506944
12.2226 0.372867 -0.118562
32.4235 -0.282969 -0.347432
31.7615 0.0527487 -0.784715
10.1276 0.225003 -0.368895
32.4365 -0.297482 -0.423336
0 0 0
9.33996 0.159592 -0.140373
8.55824 0.0160446 -0.083562
12.3013 0.198983 -0.139346
32.484 -0.318848 -0.622491
8.94413 0.152828 -0.134424
9.01883 0.275131 -0.0874847
32.3977 -0.312109 -0.950273
6.68747 0.0777781 -0.265768
6.7734 0.0126985 -0.066135
32.539 -0.224403 -0.307223
0 0 0
3.66646 0.0340584 -0.0206486
32.4226 -0.28897 -0.369726
32.2857 -0.104704 -0.635098
26.7079 0.645139 -1.54443
5.33646 0.102187 -0.199218
32.4455 -0.246484 -0.239999
0 0 0
4.92913 0.0661348 -0.026901
4.67164 0.090535 -0.0250997
32.487 -0.322399 -0.805828
28.3856 0.407015 -1.48338
6.56787 0.126929 -0.0477559
32.5539 -0.214521 -0.365923
3.10892 0.0385026 -0.0146628
32.5535 -0.200985 -0.438874
0 0 0
32.4988 -0.238111 -0.253683
32.5112 -0.233001 -0.265071
32.4134 -0.268565 -0.280758
32.4585 -0.243554 -0.237308
32.4324 -0.251309 -0.244194
32.4116 -0.271761 -0.300107
32.4346 -0.304532 -0.457914
32.4907 -0.240286 -0.247973
32.4117 -0.267706 -0.270564
32.4535 -0.316553 -0.552822
30.2847 0.0682719 -1.26143
32.5204 -0.229972 -0.276335
32.4862 -0.236784 -0.244161
32.4122 -0.274079 -0.313697
32.4158 -0.258968 -0.259806
3.61602 0.0513288 -0.0234593
32.5492 -0.221936 -0.321902
0 0 0
6.91741 0.0943638 -0.290227
28.9041 0.711434 -0.876794
32.4195 -0.294978 -0.396541
9.83768 0.297418 -0.374362
32.4934 -0.169965 -0.570936
6.53725 0.0232622 -0.0619013
8.6631 0.150493 -0.164336
8.28852 0.029494 -0.078484
9.05246 0.157256 -0.171722
8.99881 0.270695 -0.0972257
31.6948 -0.1605 -1.16726
0 0 0
32.5308 -0.228392 -0.282825
32.4787 -0.331149 -0.698957
32.4095 -0.279947 -0.332627
12.2057 0.367161 -0.131874
31.0726 0.267621 -0.912683
32.4736 -0.239462 -0.237384
32.4186 -0.25497 -0.251448
12.8105 0.53686 -0.235294
32.204 -0.285856 -1.06952
32.4203 -0.304446 -0.445507
32.5656 -0.210035 -0.393869
32.5413 -0.226637 -0.292053
32.408 -0.285869 -0.35099
32.4288 -0.313235 -0.501212
32.5595 -0.21928 -0.338135
32.4971 -0.236818 -0.242394
32.4061 -0.261375 -0.272041
32.559 -0.192659 -0.477912
32.4165 -0.301801 -0.425821
32.0417 -0.00147457 -0.765038
32.4478 -0.326038 -0.609419
32.4086 -0.330161 -0.914739
26.0458 0.927274 -1.81358
32.5523 -0.224655 -0.303652
32.4042 -0.291743 -0.373896
32.5089 -0.236217 -0.251412
32.3976 -0.272224 -0.28433
28.4117 0.678769 -1.89083
8.44942 0.146781 -0.160283
6.98466 0.0248543 -0.0661378
32.4211 -0.126348 -0.643505
10.6025 0.318937 -0.114553
32.4889 -0.237216 -0.238717
32.4044 -0.260706 -0.260538
29.9954 0.202097 -1.51915
32.4533 -0.24235 -0.230889
32.4248 -0.250004 -0.237465
32.4522 -0.336834 -0.781189
32.5716 -0.215966 -0.358507
32.5304 -0.230595 -0.270529
32.5776 -0.204895 -0.425126
32.3956 -0.279384 -0.318254
32.4097 -0.308983 -0.459914
31.3195 -0.0974788 -1.2884
32.4215 -0.322932 -0.548532
9.46334 0.286101 -0.360117
32.5636 -0.222522 -0.316453
0 0 0
32.5232 -0.231876 -0.258544
32.4005 -0.298092 -0.398709
6.62943 0.0904352 -0.278145
32.3916 -0.277116 -0.301258
32.5413 -0.227949 -0.278111
32.4006 -0.302382 -0.419215
32.3929 -0.282229 -0.338114
32.5526 -0.176503 -0.548697
32.0127 -0.266222 -1.20689
32.436 -0.336717 -0.677808
20.8578 0.947772 -0.57906
31.774 0.120613 -0.903555
5.07985 0.102177 -0.241889
12.2995 0.369983 -0.132887
32.3254 -0.34237 -1.03761
32.5533 -0.226506 -0.288918
12.908 0.540946 -0.237085
32.3898 -0.287698 -0.354835
32.5842 -0.212278 -0.380837
8.17602 0.142031 -0.155096
7.48021 0.0266177 -0.0708302
7.86726 0.136667 -0.149239
8.16891 0.24573 -0.0882593
21.9584 0.48345 -0.717192
32.5759 -0.220178 -0.332068
32.4019 -0.316797 -0.497132
32.3937 -0.305078 -0.42746
32.3573 -0.0729921 -0.734967
5.3811 0.0191482 -0.0509537
32.5907 -0.196563 -0.465545
32.5074 -0.233732 -0.24064
32.3882 -0.264804 -0.272797
0 0 0
0 0 0
32.4229 -0.344786 -0.871315
32.411 -0.33111 -0.598786
32.5216 -0.231021 -0.250453
2.91337 0.0413548 -0.0189008
9.03187 0.111092 -0.553089
32.3854 -0.26941 -0.286629
7.27464 0.135954 -0.528406
26.5737 0.63145 -1.78927
32.4318 -0.245501 -0.221317
32.5655 -0.225009 -0.298898
32.528 -0.234254 -0.254781
32.4854 -0.235901 -0.230793
4.30797 0.0629996 -0.0229199
32.3948 -0.258871 -0.251941
4.14368 0.0814246 -0.0289185
32.3797 -0.279502 -0.298924
28.3212 0.384482 -1.66453
32.3856 -0.294031 -0.376146
6.64301 0.145607 -0.0648189
2.46193 0.037284 -0.010022
0 0 0
32.5373 -0.23175 -0.260786
32.3798 -0.279892 -0.311871
30.2016 0.0304873 -1.3984
32.5514 -0.155788 -0.632848
2.86692 0.0444016 -0.0154955
32.3832 -0.298936 -0.395799
0 0 0
32.4204 -0.349453 -0.751474
5.17102 0.0237179 -0.0401496
32.5888 -0.217621 -0.349175
7.62911 0.136251 -0.147127
7.2177 0.0331054 -0.0560408
7.93219 0.141663 -0.152971
7.98016 0.228276 -0.158536
31.6258 -0.203561 -1.26047
32.6006 -0.207488 -0.41138
32.386 -0.312807 -0.45879
32.3909 -0.325671 -0.539713
32.5783 -0.22315 -0.311053
32.5532 -0.228318 -0.273946
30.9641 0.344701 -1.00164
32.4632 -0.238732 -0.218102
32.4007 -0.253563 -0.230974
32.375 -0.28494 -0.336328
32.379 -0.300374 -0.400174