# vtk DataFile Version 2.0
track0
ASCII
DATASET POLYDATA
POINTS 1006 float
-1.001 -0.05 0.0011
-1.00075 -0.0499924 0.00106851
-1.00051 -0.0499849 0.00103703
-1.00026 -0.0499773 0.00100556
-1.00001 -0.0499697 0.000974101
-0.999764 -0.049962 0.000942722
-0.999425 -0.0499515 0.000899838
-0.999086 -0.049941 0.000856836
-0.998747 -0.0499304 0.000813913
-0.998408 -0.0499199 0.000771069
-0.998069 -0.0499092 0.000728294
-0.995314 -0.0498226 0.000381565
-0.992559 -0.049735 3.92934e-05
-0.989803 -0.0496463 -0.000298553
-0.987046 -0.0495565 -0.000632007
-0.984295 -0.0494658 -0.000960489
-0.981186 -0.04936 -0.00133054
-0.978076 -0.0492571 -0.00169742
-0.974966 -0.0491533 -0.00206072
-0.971855 -0.0490485 -0.00242041
-0.968748 -0.0489429 -0.00277601
-0.965631 -0.048838 -0.0031292
-0.962514 -0.0487318 -0.00348283
-0.959397 -0.0486253 -0.00383768
-0.95628 -0.0485185 -0.00419361
-0.953162 -0.0484113 -0.00454968
-0.949918 -0.0482978 -0.0049209
-0.946674 -0.0481881 -0.00529387
-0.943429 -0.0480786 -0.00566535
-0.940185 -0.0479693 -0.00603537
-0.93694 -0.0478606 -0.00640224
-0.934397 -0.0477714 -0.0066781
-0.931855 -0.0476874 -0.00695862
-0.929312 -0.0476037 -0.0072372
-0.926769 -0.0475202 -0.00751396
-0.924294 -0.0474389 -0.00778067
-0.923805 -0.0474229 -0.00783268
-0.923317 -0.0474068 -0.00788457
-0.922828 -0.0473908 -0.00793634
-0.92234 -0.0473747 -0.00798799
-0.921851 -0.0473587 -0.00803951
-0.918724 -0.0472566 -0.00836918
-0.915597 -0.0471558 -0.00869593
-0.912469 -0.0470569 -0.00902044
-0.909341 -0.0469598 -0.00934271
-0.906216 -0.0468647 -0.00966243
-0.90523 -0.0468349 -0.00976251
-0.904244 -0.0468053 -0.0098625
-0.903258 -0.0467757 -0.00996234
-0.902272 -0.0467462 -0.010062
-0.901282 -0.0467166 -0.0101619
-0.898837 -0.0466434 -0.0104081
-0.896392 -0.0465697 -0.01065
-0.893946 -0.0464951 -0.010887
-0.8915 -0.0464197 -0.0111184
-0.889039 -0.0463428 -0.0113446
-0.886178 -0.0462583 -0.0115993
-0.883318 -0.0461698 -0.0118693
-0.880459 -0.0460845 -0.0121376
-0.877599 -0.0459993 -0.0124059
-0.874738 -0.0459142 -0.0126741
-0.871645 -0.0458304 -0.0129481
-0.868553 -0.0457405 -0.0132324
-0.865461 -0.0456523 -0.0135132
-0.862369 -0.0455657 -0.0137907
-0.859275 -0.0454807 -0.0140652
-0.856183 -0.0454102 -0.0143325
-0.853091 -0.045329 -0.0146024
-0.85 -0.0452516 -0.0148696
-0.846908 -0.0451776 -0.0151341
-0.843816 -0.0451077 -0.0153947
-0.841714 -0.045067 -0.0155604
-0.839613 -0.0450253 -0.0157329
-0.837512 -0.0449863 -0.0159031
-0.835411 -0.04495 -0.0160711
-0.833526 -0.04492 -0.0162198
-0.832462 -0.0449042 -0.0163028
-0.831397 -0.0448888 -0.0163856
-0.830332 -0.0448738 -0.0164682
-0.829268 -0.044859 -0.0165506
-0.828203 -0.0448446 -0.0166331
-0.824769 -0.0448021 -0.0168989
-0.821334 -0.0447545 -0.0171599
-0.817898 -0.0447049 -0.0174123
-0.814462 -0.044653 -0.0176543
-0.811006 -0.0445977 -0.0178847
-0.808125 -0.0445688 -0.0180753
-0.805246 -0.0445413 -0.0182921
-0.802366 -0.0445164 -0.0185098
-0.799487 -0.0444967 -0.0187255
-0.796607 -0.0444821 -0.0189395
-0.793496 -0.0444755 -0.0191388
-0.790387 -0.0444739 -0.0193633
-0.787278 -0.0444757 -0.019582
-0.784169 -0.0444805 -0.019795
-0.781059 -0.0444871 -0.020005
-0.777967 -0.0445036 -0.0201911
-0.774876 -0.0445189 -0.0203906
-0.771784 -0.0445361 -0.0205854
-0.768692 -0.0445559 -0.0207736
-0.765599 -0.0445782 -0.0209556
-0.762479 -0.0446015 -0.0211144
-0.759361 -0.0446342 -0.0212869
-0.756242 -0.0446693 -0.0214528
-0.753123 -0.0447068 -0.0216124
-0.750003 -0.0447466 -0.0217656
-0.746878 -0.0447862 -0.0218981
-0.743754 -0.0448307 -0.0220415
-0.740629 -0.0448771 -0.0221787
-0.737504 -0.0449256 -0.0223097
-0.734379 -0.0449761 -0.0224346
-0.731254 -0.0450242 -0.0225402
-0.72813 -0.0450799 -0.0226545
-0.725006 -0.0451365 -0.022764
-0.721881 -0.045194 -0.0228687
-0.718756 -0.0452525 -0.0229685
-0.715631 -0.0453077 -0.0230528
-0.712506 -0.0453672 -0.0231431
-0.709382 -0.0454262 -0.0232289
-0.706257 -0.0454849 -0.0233102
-0.703131 -0.0455433 -0.0233871
-0.700006 -0.0455982 -0.0234536
-0.696881 -0.0456553 -0.023522
-0.693756 -0.0457117 -0.0235866
-0.690631 -0.0457675 -0.0236475
-0.687507 -0.0458227 -0.0237048
-0.684867 -0.0458679 -0.0237479
-0.682228 -0.0459137 -0.0237913
-0.679589 -0.0459593 -0.023833
-0.67695 -0.0460047 -0.023873
-0.673567 -0.0460627 -0.0239222
-0.67323 -0.0460685 -0.0239269
-0.672893 -0.0460742 -0.0239315
-0.672555 -0.04608 -0.0239361
-0.672218 -0.0460857 -0.0239406
-0.671881 -0.0460915 -0.0239452
-0.668755 -0.0461448 -0.0239871
-0.66563 -0.0461982 -0.0240273
-0.662505 -0.0462517 -0.0240658
-0.65938 -0.0463053 -0.0241029
-0.656255 -0.0463592 -0.024139
-0.655021 -0.0463806 -0.0241532
-0.653787 -0.0464021 -0.0241671
-0.652553 -0.0464236 -0.024181
-0.651319 -0.0464453 -0.0241948
-0.65012 -0.0464664 -0.0242082
-0.648221 -0.0464999 -0.0242293
-0.646323 -0.0465337 -0.0242501
-0.644425 -0.0465676 -0.0242706
-0.642527 -0.0466018 -0.0242908
-0.640628 -0.0466361 -0.0243107
-0.637503 -0.0466928 -0.0243436
-0.634378 -0.0467505 -0.0243758
-0.631253 -0.0468092 -0.0244078
-0.628128 -0.0468687 -0.0244396
-0.625003 -0.0469292 -0.0244712
-0.621877 -0.0469905 -0.0245041
-0.618752 -0.0470527 -0.0245357
-0.615627 -0.0471158 -0.0245672
-0.612502 -0.0471798 -0.0245987
-0.609377 -0.0472446 -0.02463
-0.606252 -0.0473099 -0.0246631
-0.603126 -0.0473761 -0.0246943
-0.600001 -0.0474428 -0.0247251
-0.596876 -0.0475102 -0.0247555
-0.593751 -0.0475782 -0.0247856
-0.590626 -0.0476467 -0.0248179
-0.5875 -0.0477157 -0.0248474
-0.584375 -0.0477851 -0.0248763
-0.581249 -0.0478551 -0.0249048
-0.578124 -0.0479255 -0.0249328
-0.574999 -0.0479961 -0.0249626
-0.571873 -0.0480674 -0.0249899
-0.568748 -0.0481393 -0.0250168
-0.565622 -0.0482117 -0.0250433
-0.562497 -0.0482847 -0.0250693
-0.559371 -0.0483584 -0.0250979
-0.556245 -0.0484323 -0.0251234
-0.55312 -0.0485062 -0.0251482
-0.549994 -0.0485801 -0.0251724
-0.546868 -0.048654 -0.0251959
-0.543742 -0.0487278 -0.025221
-0.540616 -0.0488026 -0.0252442
-0.537489 -0.0488787 -0.0252672
-0.534363 -0.0489559 -0.0252901
-0.531237 -0.0490342 -0.0253129
-0.52811 -0.0491138 -0.0253384
-0.524984 -0.049195 -0.0253622
-0.521858 -0.0492795 -0.0253868
-0.518731 -0.0493671 -0.0254123
-0.515604 -0.0494579 -0.0254387
-0.512478 -0.0495507 -0.0254671
-0.509352 -0.0496453 -0.0254943
-0.506225 -0.0497405 -0.0255212
-0.503099 -0.0498363 -0.025548
-0.499973 -0.0499326 -0.0255744
-0.496847 -0.0500297 -0.0256028
-0.493721 -0.0501259 -0.0256284
-0.490594 -0.05022 -0.0256525
-0.487468 -0.0503119 -0.0256752
-0.484343 -0.0504018 -0.0256963
-0.481217 -0.0504913 -0.0257169
-0.478092 -0.0505804 -0.0257363
-0.474967 -0.0506683 -0.0257545
-0.471842 -0.050755 -0.0257717
-0.468717 -0.0508406 -0.025788
-0.465593 -0.0509245 -0.0258053
-0.462469 -0.0510103 -0.02582
-0.459346 -0.0510962 -0.0258339
-0.456222 -0.0511817 -0.0258471
-0.453098 -0.051267 -0.0258599
-0.449974 -0.0513521 -0.025873
-0.44685 -0.0514385 -0.0258841
-0.443726 -0.051525 -0.0258944
-0.440602 -0.0516111 -0.0259045
-0.437478 -0.0516958 -0.0259149
-0.434355 -0.0517768 -0.0259278
-0.431232 -0.0518617 -0.0259381
-0.428109 -0.0519473 -0.0259476
-0.424986 -0.0520324 -0.0259568
-0.421863 -0.0521167 -0.0259661
-0.41874 -0.0521994 -0.0259765
-0.415616 -0.0522838 -0.0259853
-0.412493 -0.0523684 -0.0259935
-0.409369 -0.0524525 -0.0260014
-0.406245 -0.0525352 -0.0260094
-0.403122 -0.0526129 -0.0260193
-0.399999 -0.0526958 -0.0260259
-0.396876 -0.0527799 -0.0260315
-0.393753 -0.0528635 -0.0260366
-0.39063 -0.0529463 -0.0260417
-0.387506 -0.0530265 -0.0260479
-0.384383 -0.0531094 -0.0260521
-0.381259 -0.0531927 -0.0260557
-0.378136 -0.0532757 -0.0260589
-0.375012 -0.0533575 -0.0260622
-0.371888 -0.0534331 -0.0260679
-0.368765 -0.0535154 -0.0260708
-0.365642 -0.0535987 -0.0260727
-0.362519 -0.0536818 -0.0260743
-0.359395 -0.0537641 -0.0260758
-0.356271 -0.0538429 -0.0260784
-0.353147 -0.0539253 -0.0260793
-0.350023 -0.054008 -0.0260796
-0.346899 -0.0540905 -0.0260797
-0.343775 -0.0541719 -0.0260798
-0.340652 -0.0542462 -0.0260823
-0.337528 -0.0543278 -0.0260824
-0.334405 -0.05441 -0.0260821
-0.331281 -0.0544921 -0.0260816
-0.328157 -0.0545737 -0.0260811
-0.325033 -0.0546514 -0.0260817
-0.321909 -0.0547332 -0.0260814
-0.318785 -0.0548152 -0.0260811
-0.31566 -0.0548971 -0.0260808
-0.312536 -0.0549788 -0.0260805
-0.309412 -0.0550528 -0.0260824
-0.306288 -0.0551345 -0.0260835
-0.303164 -0.055216 -0.0260843
-0.30004 -0.0552973 -0.0260848
-0.296915 -0.0553785 -0.0260853
-0.29379 -0.0554556 -0.0260852
-0.290665 -0.0555367 -0.026084
-0.28754 -0.055618 -0.0260824
-0.284415 -0.0556987 -0.0260804
-0.28129 -0.055779 -0.0260781
-0.278164 -0.0558525 -0.0260769
-0.275038 -0.0559324 -0.0260744
-0.271911 -0.0560115 -0.0260715
-0.268785 -0.0560897 -0.0260682
-0.265659 -0.0561678 -0.0260644
-0.262528 -0.0562423 -0.0260602
-0.259398 -0.0563208 -0.0260532
-0.256267 -0.0564006 -0.0260447
-0.253137 -0.0564807 -0.0260315
-0.250006 -0.0565611 -0.0260136
-0.247002 -0.0566365 -0.0259941
-0.243999 -0.0567152 -0.0259739
-0.240996 -0.0567939 -0.0259531
-0.237993 -0.0568727 -0.0259318
-0.235216 -0.0569453 -0.0259123
-0.235053 -0.0569496 -0.0259112
-0.234891 -0.0569538 -0.0259101
-0.234728 -0.0569581 -0.0259091
-0.234566 -0.0569623 -0.025908
-0.234404 -0.0569665 -0.0259069
-0.23128 -0.057048 -0.0258861
-0.228156 -0.0571268 -0.0258671
-0.225032 -0.0572036 -0.0258522
-0.221909 -0.0572791 -0.0258449
-0.218786 -0.0573533 -0.025845
-0.215662 -0.0574235 -0.025851
-0.212537 -0.0574924 -0.0258614
-0.209412 -0.0575586 -0.0258761
-0.206288 -0.0576223 -0.0258951
-0.203163 -0.0576833 -0.0259165
-0.200038 -0.0577405 -0.0259374
-0.196913 -0.0577957 -0.0259594
-0.193788 -0.0578489 -0.0259834
-0.190663 -0.0579 -0.0260107
-0.187538 -0.057949 -0.0260414
-0.184407 -0.0579958 -0.0260746
-0.181277 -0.0580412 -0.0261081
-0.178146 -0.058086 -0.0261414
-0.175015 -0.0581302 -0.0261745
-0.171884 -0.0581737 -0.0262074
-0.168757 -0.0582179 -0.0262402
-0.16563 -0.0582628 -0.0262714
-0.162502 -0.0583078 -0.0263002
-0.159375 -0.0583528 -0.0263255
-0.156248 -0.0583979 -0.0263473
-0.153123 -0.0584422 -0.0263661
[...]
POINT_DATA 1006
 FIELD attributes 2
p 1 1006 float
-36.8725 -36.961 -37.0496 -37.1381 -37.1821 -37.2106 -37.5146 -37.6065 -37.6985 -37.7905 -37.8827 -38.8052 -39.7301 -40.6573 -41.5868 -42.28 -42.246 -41.9756 -41.6714 -41.3682 -41.26 -41.5056 -41.6166 -41.765 -42.2085 -42.6239 -44.2485 -45.2228 -46.1973 -47.1377 -47.6406 -48.7754 -49.3254 -49.8758 -50.3495 -50.7743 -50.8706 -50.9669 -51.0633 -51.1597 -51.2639 -51.7398 -52.2437 -52.7488 -53.255 -53.8962 -54.0988 -54.2535 -54.4083 -54.5631 -54.7088 -54.8278 -54.9466 -55.0652 -55.1834 -55.7986 -56.4565 -57.4084 -58.1664 -58.9244 -59.8172 -60.9907 -61.4484 -61.9054 -62.3617 -61.9257 -61.6509 -61.3761 -61.1026 -60.8036 -60.2772 -60.4014 -60.6616 -60.9229 -61.1852 -61.4214 -61.4894 -61.5577 -61.6262 -61.6159 -61.8376 -62.1248 -62.4864 -62.8474 -63.2077 -63.8628 -64.7111 -66.2418 -67.3878 -68.5019 -69.9768 -73.7524 -74.6013 -75.4494 -76.565 -74.3325 -77.4805 -77.7199 -77.9382 -78.1597 -76.5744 -78.2056 -78.3044 -78.4064 -78.5118 -77.3486 -78.4909 -78.1754 -77.8627 -77.5528 -76.2704 -76.5487 -75.9643 -75.3824 -74.7996 -73.5105 -73.6555 -73.1406 -72.6304 -72.1247 -71.3316 -71.0747 -70.4297 -69.7892 -69.1534 -68.4368 -67.8219 -67.2209 -66.6208 -66.0215 -65.2545 -65.1783 -65.1022 -65.026 -64.9499 -64.8801 -64.334 -63.7927 -63.2556 -62.7295 -62.224 -62.0444 -61.8655 -61.6866 -61.5077 -61.3338 -61.0503 -60.7667 -60.4832 -60.1996 -59.9441 -59.5846 -59.2386 -58.8926 -58.5466 -58.2653 -58.1311 -58.0561 -57.9811 -57.9061 -57.9213 -57.9275 -58.0114 -58.0954 -58.1792 -58.3121 -58.2328 -58.2277 -58.2226 -58.2175 -58.2743 -58.1204 -58.0432 -57.9659 -57.8887 -57.9287 -57.7413 -57.6785 -57.6158 -57.5531 -57.6198 -57.3273 -57.0279 -56.7285 -56.4291 -56.296 -56.1294 -56.0988 -56.0684 -56.038 -56.1675 -56.34 -56.9827 -57.6254 -58.268 -59.0163 -59.0226 -59.4534 -59.8849 -60.317 -60.9644 -60.774 -60.7018 -60.6298 -60.6038 -60.9256 -60.579 -60.3905 -60.2132 -60.1308 -60.3696 -60.0829 -59.9766 -59.9462 -59.9674 -60.138 -59.985 -59.9792 -60.0506 -60.1727 -60.4323 -60.4049 -60.4722 -60.5728 -60.7035 -60.8937 -60.9176 -60.9536 -60.983 -61.0215 -61.0917 -60.9882 -60.9362 -60.9031 -60.9177 -60.9653 -60.9002 -60.8816 -60.8756 -60.8871 -60.9886 -60.8857 -60.8453 -60.7984 -60.7395 -60.7322 -60.6075 -60.5639 -60.5167 -60.4571 -60.536 -60.4389 -60.4268 -60.4263 -60.4292 -60.4901 -60.4874 -60.6316 -60.7769 -60.9324 -61.2114 -61.4325 -61.5583 -61.6773 -61.7964 -61.7677 -61.8739 -62.0686 -62.2633 -62.3372 -62.448 -62.4564 -62.4634 -62.9937 -63.5232 -63.7958 -62.7742 -61.6639 -60.5537 -59.8108 -59.4741 -59.4507 -59.4273 -59.4039 -59.3805 -59.3695 -59.4542 -58.923 -57.562 -56.2163 -55.0615 -56.4085 -57.1832 -57.9574 -58.6779 -59.2046 -60.0613 -60.7234 -61.5644 -62.4023 -62.4959 -63.8933 -65.0906 -66.2881 -67.1912 -67.8386 -68.7153 -69.4463 -70.3399 -71.2361 -72.0709 -71.7776 -71.7238 -71.6704 -71.7303 -71.8144 -72.0563 -72.1905 -72.2742 -72.358 -72.5317 -72.6241 -72.7425 -72.8613 -72.9505 -72.9376 -72.9085 -73.078 -73.2476 -73.4118 -73.5659 -73.6532 -73.7405 -73.8278 -73.9152 -74.3247 -75.6791 -76.0029 -75.922 -76.3225 -76.1574 -76.4116 -76.3408 -76.2699 -76.4472 -76.0607 -76.199 -76.0196 -75.916 -75.8125 -75.6907 -75.5822 -75.3774 -75.1727 -74.8143 -74.3642 -73.914 -73.7345 -73.5963 -73.458 -73.437 -73.447 -73.4097 -73.3725 -73.3302 -73.2722 -73.123 -72.9173 -72.7589 -72.6007 -72.3962 -72.2736 -72.132 -71.9906 -71.8207 -71.6285 -71.6728 -71.7238 -71.7748 -71.8233 -71.8547 -71.8974 -71.9401 -71.9828 -72.0257 -72.0781 -72.3061 -72.5364 -72.7668 -73.03 -73.3115 -73.5784 -73.8455 -74.0933 -74.3413 -74.6136 -74.8428 -75.0812 -75.3195 -75.5734 -75.8537 -76.1571 -76.4742 -76.7718 -77.0695 -77.4173 -77.7933 -78.1816 -78.5699 -78.9803 -79.3955 -79.7765 -80.1763 -80.5678 -80.9593 -81.3568 -81.6324 -81.9344 -82.2364 -82.5479 -82.8758 -83.0434 -83.2545 -83.4639 -83.6733 -83.9421 -84.0713 -84.2769 -84.4826 -84.6782 -84.946 -85.056 -85.2387 -85.4691 -85.6996 -85.9754 -86.11 -86.4428 -86.7756 -87.1004 -87.5662 -87.8822 -88.3664 -88.8216 -89.2772 -89.837 -90.1492 -90.7177 -91.2866 -91.8589 -92.5802 -92.9159 -93.6181 -94.3258 -95.0345 -95.8481 -96.1889 -97.1673 -98.1478 -99.2252 -100.662 -101.978 -104.484 -105.73 -106.986 -109.538 -107.917 -108.036 -108.166 -109.345 -110.501 -110.561 -110.622 -110.682 -110.647 -110.531 -109.074 -107.701 -107.009 -106.714 -107.031 -107.789 -108.565 -109.613 -111.19 -112.792 -113.453 -114.13 -114.488 -114.713 -115.119 -115.367 -114.505 -113.316 -111.962 -109.657 -105.49 -102.956 -100.895 -99.5376 -99.0427 -97.7806 -96.6373 -95.5835 -94.5906 -93.8572 -91.3829 -89.2722 -87.1663 -85.008 -83.2294 -80.3629 -77.9195 -75.6786 -73.5634 -71.5786 -71.114 -70.7349 -70.3558 -69.9767 -69.5913 -68.012 -66.3412 -64.5651 -62.7896 -61.205 -58.8828 -56.4323 -53.9816 -51.6747 -48.5104 -45.2952 -42.9524 -40.5858 -38.2922 -36.3192 -34.1712 -33.082 -32.1703 -31.1899 -30.8458 -30.5611 -30.9926 -31.4579 -31.9376 -32.7734 -34.146 -35.8956 -37.6574 -39.5352 -41.5364 -41.6441 -41.7639 -41.8837 -42.0036 -42.1234 -45.3165 -48.0807 -50.6399 -53.2036 -55.9418 -59.2149 -62.6294 -66.046 -69.4881 -73.5515 -77.2183 -80.5235 -83.8489 -87.1751 -90.6928 -93.4148 -96.3664 -99.3192 -102.171 -104.797 -106.928 -109.083 -111.464 -113.849 -117.11 -117.152 -117.195 -117.238 -117.28 -117.321 -119.092 -120.866 -122.644 -124.387 -126.131 -127.598 -129.141 -130.899 -132.661 -134.33 -135.771 -137.195 -138.602 -139.921 -141.463 -141.869 -142.552 -143.281 -144.035 -144.847 -145.349 -145.981 -146.574 -147.534 -148.794 -148.264 -147.942 -148.356 -149.14 -150.021 -149.959 -149.968 -150.399 -151.496 -152.784 -152.847 -153.085 -153.757 -154.477 -155.112 -155.689 -156.281 -156.827 -157.38 -158.274 -157.903 -158.147 -158.211 -158.198 -158.087 -158.069 -157.741 -157.439 -157.374 -157.358 -156.762 -156.383 -155.793 -155.213 -154.64 -154.615 -154.587 -154.558 -154.529 -154.5 -153.787 -153.079 -152.374 -151.913 -152.034 -152.195 -151.558 -150.7 -149.801 -148.64 -147.559 -146.489 -145.386 -144.177 -143.033 -142.207 -141.314 -140.429 -139.485 -138.681 -137.683 -136.655 -135.589 -134.531 -133.495 -133.042 -132.523 -132.005 -131.488 -130.964 -130.875 -130.785 -130.695 -130.606 -130.515 -129.872 -129.245 -128.621 -127.991 -127.23 -125.753 -124.384 -123.024 -121.672 -120.295 -118.695 -117.19 -115.514 -113.786 -112.065 -110.621 -109.115 -107.59 -106.072 -104.809 -104.604 -104.4 -104.196 -103.991 -103.781 -102.083 -100.378 -98.6788 -97.0672 -95.6251 -93.4935 -91.7271 -90.0401 -88.4852 -87.1973 -86.0922 -84.9639 -83.8224 -82.6848 -81.6742 -81.1794 -80.6853 -80.1919 -79.748 -79.3625 -77.5855 -75.8138 -74.0144 -72.359 -70.7442 -68.5798 -66.4558 -64.3907 -62.3352 -60.6105 -60.4933 -60.3762 -60.259 -60.1607 -60.0747 -57.7881 -55.5348 -53.2952 -51.2119 -49.1671 -46.9 -44.5324 -41.8869 -39.2028 -36.8752 -36.4798 -36.0848 -35.6903 -35.3146 -34.943 -31.3501 -27.9042 -24.6006 -21.0258 -17.3351 -15.7696 -14.2003 -11.8929 -9.58774 -7.49131 -5.28197 -3.0882 -0.850598 2.05535 5.00172 9.17841 13.3733 18.4697 23.6098 28.1421 29.2781 30.4127 31.5457 32.6771 33.8154 40.6385 46.9093 53.2162 59.4659 64.9897 65.8511 66.7124 67.621 68.5368 69.4475 74.7632 80.0781 84.736 89.2451 92.9233 95.3973 97.8711 100.134 102.361 104.613 107.243 109.871 112.421 114.212 115.953 119.274 122.261 125.242 128.217 131.194 131.575 131.954 132.329 132.632 132.934 135.466 137.727 139.984 142.229 144.301 144.934 145.486 145.977 146.466 146.941 147.385 147.774 148.162 148.548 148.969 149.318 149.666 150.013 150.359 150.66 151.317 151.935 152.438 152.925 153.248 153.312 153.349 153.324 153.299 153.273 153.389 153.375 153.352 153.27 152.858 152.676 152.368 152.049 151.73 151.311 151.008 150.704 150.483 150.29 150.088 149.771 149.451 149.123 148.752 148.304 145.366 142.949 140.543 138.397 136.319 135.446 134.537 132.521 129.622 126.495 122.334 119.783 117.195 113.95 105.355 104.747 104.138 103.526 102.913 102.594 102.534 102.475 102.416 102.357 102.299 98.4292 94.6492 91.2439 87.8249 84.4849 82.2654 80.29 78.3089 75.8561 74.1947 69.5751 65.6691 62.5518 58.2977 53.8622 50.8886 48.1934 45.9414 43.8412 42.0911 38.3878 35.1889 32.3619 29.5352 26.6926 24.9507 23.0725 21.2153 19.4977 17.8409 16.7434 15.6569 14.5299 13.3884 12.3634 11.5821 10.7333 9.88832 9.04886 8.26416 7.6373 7.11977 6.62702 6.16551 5.90198 5.39872 4.98165 4.56453 4.1467 3.66686 3.38309 3.12984 2.88202 2.63419 2.39511 2.03811 1.81417 1.59016 1.31878 1.05105 0.938255 0.824338 0.710422 0.597686 0.48706 0.440272 0.392622 0.344972 0.299418 0.254355 0.231736 0.208398 0.18506 0.162391 0.139787 0.126464 0.112851 0.0992376 0.0861116 0.0731636 0.0658401 0.0584754 0.0511107 0.044251 0.0375853 0.0338875 0.0302091 0.0265307 0.023298 0.0202037 0.0182733 0.016395 0.0145168 0.013026 0.0116535 0.0105 0.00937457 0.00824915 0.00746282 0.0067411 0.00607984 0.00552497 0.0049701 0.00484393 0.00482401 0.00351974 0.00215955 0.00080095 0.00066566 0.00050351
k 1 1006 float
0.554639 0.554771 0.554904 0.555036 0.554635 0.554051 0.555079 0.555267 0.555457 0.555648 0.555842 0.557242 0.558738 0.560331 0.562019 0.568746 0.56221 0.56781 0.57398 0.580243 0.588003 0.59225 0.60831 0.622883 0.626011 0.640838 0.641671 0.643422 0.64522 0.644203 0.633031 0.637866 0.6425 0.64716 0.649127 0.649778 0.650146 0.650517 0.650892 0.65127 0.652064 0.66132 0.673385 0.685496 0.697651 0.701724 0.701898 0.701937 0.701982 0.702031 0.702031 0.699195 0.696472 0.69388 0.691435 0.684964 0.685186 0.680921 0.684688 0.688456 0.683876 0.700191 0.705309 0.710497 0.715752 0.695683 0.736587 0.745346 0.754153 0.760426 0.744765 0.776208 0.783483 0.790912 0.798495 0.805429 0.810392 0.815365 0.82035 0.82323 0.829898 0.831243 0.824621 0.818293 0.812321 0.798636 0.815742 0.798909 0.800396 0.803631 0.781749 0.810338 0.81248 0.814784 0.812554 0.772754 0.827327 0.83537 0.840249 0.845299 0.815621 0.862997 0.869041 0.875255 0.881637 0.852971 0.904039 0.910184 0.916568 0.923188 0.899754 0.941453 0.94822 0.955175 0.962181 0.940817 0.978324 0.98442 0.990888 0.997724 0.988756 1.01392 1.02074 1.02789 1.03536 1.03446 1.04941 1.05615 1.06305 1.07011 1.07936 1.08038 1.08139 1.0824 1.08342 1.08457 1.09311 1.1022 1.11175 1.12236 1.13479 1.13457 1.13873 1.14289 1.14706 1.15112 1.15557 1.16003 1.16452 1.16903 1.1795 1.17982 1.18712 1.19441 1.20169 1.22132 1.21108 1.2189 1.2267 1.23449 1.27384 1.24537 1.2535 1.26165 1.26982 1.3131 1.27871 1.28776 1.29685 1.30598 1.37578 1.31637 1.32674 1.33714 1.34756 1.41359 1.35779 1.36925 1.38079 1.39242 1.48705 1.40364 1.41432 1.42496 1.43557 1.5173 1.44201 1.44993 1.45759 1.465 1.58176 1.47198 1.48008 1.48819 1.49631 1.59664 1.49751 1.50343 1.5101 1.51709 1.67123 1.51182 1.51829 1.525 1.53778 1.66931 1.53348 1.51908 1.52622 1.57405 1.75929 1.57187 1.52735 1.543 1.59945 1.76034 1.59938 1.56439 1.57989 1.64796 1.85893 1.64992 1.60718 1.62305 1.67935 1.8678 1.68212 1.64746 1.66339 1.72697 1.95919 1.73115 1.69673 1.71267 1.76246 1.97494 1.76761 1.74076 1.75614 1.80918 2.05937 1.81533 1.79582 1.81008 1.84769 2.0813 1.8549 1.84256 1.85625 1.89221 2.15722 1.90073 1.90298 1.91552 1.93373 2.18557 1.94349 1.95442 1.96701 1.984 2.25089 2.00373 2.0192 2.02836 2.03768 2.27356 2.06674 2.08202 2.09746 2.11272 2.311 2.1596 2.18523 2.2102 2.23713 2.34365 2.28806 2.30236 2.31687 2.34065 2.37124 2.37329 2.37534 2.37739 2.37944 2.37598 2.41879 2.45107 2.47633 2.49802 2.42001 2.52989 2.53479 2.53754 2.54354 2.43496 2.55535 2.56001 2.55953 2.55746 2.42769 2.56166 2.56759 2.57363 2.58061 2.44114 2.5965 2.5984 2.59661 2.59651 2.40754 2.60638 2.60563 2.60566 2.6126 2.44577 2.64029 2.64339 2.63884 2.63471 2.43521 2.62694 2.61294 2.59966 2.5987 2.5111 2.60511 2.60878 2.61232 2.60639 2.59465 2.58787 2.58108 2.57428 2.56746 2.65937 2.63898 2.42622 2.18461 2.2141 2.1114 2.19312 2.18478 2.17662 2.12527 2.08923 2.09329 2.09869 2.09224 2.08597 1.97329 2.08048 2.07906 2.07774 2.07912 2.03527 2.08921 2.09243 2.09106 2.08972 2.0261 2.09785 2.09705 2.09633 2.10075 2.04743 2.11778 2.12082 2.11911 2.11747 2.08516 2.11831 2.11647 2.11468 2.11766 2.11273 2.12733 2.12988 2.13243 2.13459 2.13396 2.13456 2.13514 2.13571 2.13626 2.14216 2.13753 2.13862 2.13969 2.1454 2.16443 2.15911 2.16468 2.16568 2.16669 2.19463 2.1672 2.16812 2.16904 2.17431 2.20831 2.18379 2.18924 2.1905 2.19172 2.24352 2.19237 2.1941 2.19583 2.2023 2.25399 2.21118 2.21753 2.21916 2.22085 2.29776 2.22067 2.22164 2.22269 2.2275 2.29487 2.23125 2.2347 2.23522 2.23582 2.33663 2.23417 2.23462 2.23513 2.23815 2.32217 2.23929 2.24088 2.24107 2.24132 2.36681 2.23975 2.24055 2.24145 2.24468 2.34578 2.24715 2.24797 2.24868 2.24955 2.39467 2.2509 2.25164 2.25262 2.2525 2.35791 2.25441 2.24846 2.24875 2.24942 2.38848 2.2587 2.25768 2.25716 2.24206 2.31934 2.24356 2.22551 2.2124 2.20058 2.28174 2.22363 2.22005 2.21796 2.28222 2.34713 2.34987 2.35261 2.35535 2.35486 2.35168 2.36841 2.38074 2.39145 2.40149 2.37154 2.39611 2.39619 2.39685 2.39772 2.33767 2.34923 2.32387 2.31685 2.3183 2.24151 2.28905 2.30114 2.3018 2.29775 2.26654 2.32541 2.34153 2.34578 2.30703 2.19225 2.27137 2.29301 2.28365 2.26632 2.2115 2.24642 2.24585 2.24362 2.22488 2.17176 2.20622 2.1937 2.18948 2.19041 2.18743 2.19127 2.19218 2.19308 2.19399 2.1949 2.20002 2.20116 2.1977 2.19418 2.17687 2.19659 2.1979 2.19878 2.20702 2.18918 2.22399 2.23374 2.23724 2.23424 2.20197 2.25078 2.25888 2.25978 2.25993 2.24186 2.27257 2.27637 2.27869 2.28001 2.26673 2.28991 2.29294 2.29511 2.29734 2.29921 2.2997 2.29974 2.29977 2.29981 2.29984 2.30409 2.30765 2.3106 2.31295 2.30358 2.30889 2.30791 2.30668 2.30511 2.27343 2.28697 2.28078 2.27298 2.26523 2.24021 2.23967 2.2335 2.22745 2.2191 2.1983 2.19197 2.18126 2.17371 2.1664 2.15673 2.1566 2.15648 2.15635 2.15623 2.15608 2.14536 2.13506 2.12517 2.113 2.10201 2.08991 2.07875 2.07642 2.07449 2.06912 2.06405 2.05724 2.04941 2.03609 2.03604 2.01325 1.99674 1.99205 1.98913 1.97679 1.9675 1.96219 1.95449 1.96712 1.99402 1.94493 1.90507 1.89988 1.89415 1.88651 1.87517 1.86828 1.8674 1.91029 1.96944 1.89402 1.84539 1.84182 1.84103 1.84441 1.83537 1.82983 1.82898 1.84234 1.90365 1.83463 1.83502 1.83767 1.84083 1.85304 1.84275 1.8414 1.84136 1.84685 1.88511 1.85669 1.86216 1.85328 1.84541 1.83969 1.83933 1.83915 1.83898 1.8388 1.83863 1.83033 1.82273 1.81582 1.81827 1.82946 1.83722 1.83732 1.84341 1.85712 1.90773 1.87309 1.88092 1.88592 1.88152 1.87896 1.8846 1.87125 1.85874 1.86221 1.88043 1.87288 1.86999 1.86084 1.85249 1.84614 1.84641 1.84504 1.8438 1.84266 1.84164 1.8414 1.84117 1.84094 1.84072 1.84068 1.84252 1.84492 1.84756 1.85014 1.84537 1.84202 1.84565 1.84996 1.85494 1.84811 1.85395 1.8614 1.85648 1.84784 1.83129 1.83987 1.83622 1.8285 1.82116 1.81402 1.81345 1.8129 1.81235 1.8115 1.80919 1.80554 1.80396 1.80318 1.80359 1.80555 1.79788 1.80107 1.79894 1.79128 1.78427 1.79048 1.78953 1.78422 1.77913 1.77481 1.77515 1.77554 1.77599 1.77166 1.76159 1.76592 1.76613 1.76498 1.76187 1.75807 1.75558 1.7463 1.73449 1.72311 1.71389 1.71331 1.71274 1.71218 1.7119 1.71183 1.70245 1.69499 1.68815 1.67573 1.66302 1.66784 1.66831 1.65684 1.64772 1.64176 1.64084 1.63994 1.63904 1.63612 1.63272 1.62561 1.61917 1.61152 1.61438 1.61204 1.60712 1.60234 1.60251 1.60276 1.60173 1.5961 1.59074 1.58519 1.57469 1.5641 1.56526 1.56592 1.55452 1.54212 1.53131 1.52821 1.52512 1.52208 1.51914 1.51619 1.51545 1.5121 1.50363 1.49049 1.47331 1.4751 1.4769 1.47557 1.47377 1.47198 1.47165 1.47142 1.46571 1.45564 1.44192 1.44601 1.45009 1.44599 1.4405 1.43496 1.43556 1.43615 1.4357 1.43043 1.42492 1.42873 1.42667 1.42453 1.4223 1.41598 1.41683 1.41768 1.41839 1.41637 1.41435 1.41783 1.41513 1.41212 1.40896 1.40328 1.40425 1.40314 1.40244 1.40172 1.39994 1.39979 1.39887 1.39793 1.39698 1.39592 1.39506 1.39418 1.39329 1.39239 1.39299 1.38892 1.38608 1.38398 1.3817 1.38667 1.38351 1.38159 1.38271 1.38382 1.38494 1.37584 1.37202 1.3681 1.36517 1.37242 1.359 1.35601 1.35289 1.34954 1.36288 1.35483 1.35729 1.36428 1.36971 1.37534 1.36207 1.34887 1.33743 1.34014 1.369 1.35727 1.37739 1.40315 1.44736 1.49564 1.41754 1.34319 1.34077 1.42076 1.52325 1.47853 1.47179 1.46534 1.48211 1.42366 1.41092 1.39824 1.38564 1.37311 1.36664 1.36542 1.36421 1.36299 1.36177 1.36064 1.31686 1.27927 1.26277 1.24682 1.21712 1.2212 1.21254 1.20391 1.17814 1.14248 1.10019 1.04209 0.952566 0.927963 0.920198 0.889443 0.861602 0.835485 0.805098 0.765026 0.710832 0.613702 0.573929 0.534363 0.493283 0.496288 0.481226 0.466935 0.457702 0.43604 0.438164 0.430643 0.420265 0.408869 0.390375 0.390313 0.381209 0.373369 0.367287 0.353629 0.353154 0.344986 0.337301 0.33022 0.318616 0.293474 0.281169 0.26887 0.257073 0.247055 0.244566 0.24168 0.239024 0.236369 0.231384 0.227379 0.222289 0.217206 0.217342 0.217713 0.215858 0.214085 0.212311 0.211342 0.210498 0.208871 0.207251 0.205631 0.204695 0.203804 0.202368 0.200881 0.199394 0.19849 0.197567 0.196293 0.194922 0.193551 0.192677 0.191735 0.190599 0.18933 0.18806 0.187216 0.186264 0.185244 0.184065 0.182886 0.182069 0.181115 0.180196 0.179097 0.177998 0.177207 0.176257 0.175423 0.174396 0.173369 0.172603 0.171662 0.170903 0.16994 0.168977 0.168235 0.167307 0.167007 0.166542 0.166076 0.165712 0.165192
