# vtk DataFile Version 2.0
track0
ASCII
DATASET POLYDATA
POINTS 1006 float
-1.001 -0.05 0.0011
-1.00075 -0.0499924 0.00106851
-1.00051 -0.0499849 0.00103703
-1.00026 -0.0499773 0.00100556
-1.00001 -0.0499697 0.000974101
-0.999764 -0.049962 0.000942722
-0.999425 -0.0499515 0.000899838
-0.999086 -0.049941 0.000856836
-0.998747 -0.0499304 0.000813913
-0.998408 -0.0499199 0.000771069
-0.998069 -0.0499092 0.000728294
-0.995314 -0.0498226 0.000381565
-0.992559 -0.049735 3.92934e-05
-0.989803 -0.0496463 -0.000298553
-0.987046 -0.0495565 -0.000632007
-0.984295 -0.0494658 -0.000960489
-0.981186 -0.04936 -0.00133054
-0.978076 -0.0492571 -0.00169742
-0.974966 -0.0491533 -0.00206072
-0.971855 -0.0490485 -0.00242041
-0.968748 -0.0489429 -0.00277601
-0.965631 -0.048838 -0.0031292
-0.962514 -0.0487318 -0.00348283
-0.959397 -0.0486253 -0.00383768
-0.95628 -0.0485185 -0.00419361
-0.953162 -0.0484113 -0.00454968
-0.949918 -0.0482978 -0.0049209
-0.946674 -0.0481881 -0.00529387
-0.943429 -0.0480786 -0.00566535
-0.940185 -0.0479693 -0.00603537
-0.93694 -0.0478606 -0.00640224
-0.934397 -0.0477714 -0.0066781
-0.931855 -0.0476874 -0.00695862
-0.929312 -0.0476037 -0.0072372
-0.926769 -0.0475202 -0.00751396
-0.924294 -0.0474389 -0.00778067
-0.923805 -0.0474229 -0.00783268
-0.923317 -0.0474068 -0.00788457
-0.922828 -0.0473908 -0.00793634
-0.92234 -0.0473747 -0.00798799
-0.921851 -0.0473587 -0.00803951
-0.918724 -0.0472566 -0.00836918
-0.915597 -0.0471558 -0.00869593
-0.912469 -0.0470569 -0.00902044
-0.909341 -0.0469598 -0.00934271
-0.906216 -0.0468647 -0.00966243
-0.90523 -0.0468349 -0.00976251
-0.904244 -0.0468053 -0.0098625
-0.903258 -0.0467757 -0.00996234
-0.902272 -0.0467462 -0.010062
-0.901282 -0.0467166 -0.0101619
-0.898837 -0.0466434 -0.0104081
-0.896392 -0.0465697 -0.01065
-0.893946 -0.0464951 -0.010887
-0.8915 -0.0464197 -0.0111184
-0.889039 -0.0463428 -0.0113446
-0.886178 -0.0462583 -0.0115993
-0.883318 -0.0461698 -0.0118693
-0.880459 -0.0460845 -0.0121376
-0.877599 -0.0459993 -0.0124059
-0.874738 -0.0459142 -0.0126741
-0.871645 -0.0458304 -0.0129481
-0.868553 -0.0457405 -0.0132324
-0.865461 -0.0456523 -0.0135132
-0.862369 -0.0455657 -0.0137907
-0.859275 -0.0454807 -0.0140652
-0.856183 -0.0454102 -0.0143325
-0.853091 -0.045329 -0.0146024
-0.85 -0.0452516 -0.0148696
-0.846908 -0.0451776 -0.0151341
-0.843816 -0.0451077 -0.0153947
-0.841714 -0.045067 -0.0155604
-0.839613 -0.0450253 -0.0157329
-0.837512 -0.0449863 -0.0159031
-0.835411 -0.04495 -0.0160711
-0.833526 -0.04492 -0.0162198
-0.832462 -0.0449042 -0.0163028
-0.831397 -0.0448888 -0.0163856
-0.830332 -0.0448738 -0.0164682
-0.829268 -0.044859 -0.0165506
-0.828203 -0.0448446 -0.0166331
-0.824769 -0.0448021 -0.0168989
-0.821334 -0.0447545 -0.0171599
-0.817898 -0.0447049 -0.0174123
-0.814462 -0.044653 -0.0176543
-0.811006 -0.0445977 -0.0178847
-0.808125 -0.0445688 -0.0180753
-0.805246 -0.0445413 -0.0182921
-0.802366 -0.0445164 -0.0185098
-0.799487 -0.0444967 -0.0187255
-0.796607 -0.0444821 -0.0189395
-0.793496 -0.0444755 -0.0191388
-0.790387 -0.0444739 -0.0193633
-0.787278 -0.0444757 -0.019582
-0.784169 -0.0444805 -0.019795
-0.781059 -0.0444871 -0.020005
-0.777967 -0.0445036 -0.0201911
-0.774876 -0.0445189 -0.0203906
-0.771784 -0.0445361 -0.0205854
-0.768692 -0.0445559 -0.0207736
-0.765599 -0.0445782 -0.0209556
-0.762479 -0.0446015 -0.0211144
-0.759361 -0.0446342 -0.0212869
-0.756242 -0.0446693 -0.0214528
-0.753123 -0.0447068 -0.0216124
-0.750003 -0.0447466 -0.0217656
-0.746878 -0.0447862 -0.0218981
-0.743754 -0.0448307 -0.0220415
-0.740629 -0.0448771 -0.0221787
-0.737504 -0.0449256 -0.0223097
-0.734379 -0.0449761 -0.0224346
-0.731254 -0.0450242 -0.0225402
-0.72813 -0.0450799 -0.0226545
-0.725006 -0.0451365 -0.022764
-0.721881 -0.045194 -0.0228687
-0.718756 -0.0452525 -0.0229685
-0.715631 -0.0453077 -0.0230528
-0.712506 -0.0453672 -0.0231431
-0.709382 -0.0454262 -0.0232289
-0.706257 -0.0454849 -0.0233102
-0.703131 -0.0455433 -0.0233871
-0.700006 -0.0455982 -0.0234536
-0.696881 -0.0456553 -0.023522
-0.693756 -0.0457117 -0.0235866
-0.690631 -0.0457675 -0.0236475
-0.687507 -0.0458227 -0.0237048
-0.684867 -0.0458679 -0.0237479
-0.682228 -0.0459137 -0.0237913
-0.679589 -0.0459593 -0.023833
-0.67695 -0.0460047 -0.023873
-0.673567 -0.0460627 -0.0239222
-0.67323 -0.0460685 -0.0239269
-0.672893 -0.0460742 -0.0239315
-0.672555 -0.04608 -0.0239361
-0.672218 -0.0460857 -0.0239406
-0.671881 -0.0460915 -0.0239452
-0.668755 -0.0461448 -0.0239871
-0.66563 -0.0461982 -0.0240273
-0.662505 -0.0462517 -0.0240658
-0.65938 -0.0463053 -0.0241029
-0.656255 -0.0463592 -0.024139
-0.655021 -0.0463806 -0.0241532
-0.653787 -0.0464021 -0.0241671
-0.652553 -0.0464236 -0.024181
-0.651319 -0.0464453 -0.0241948
-0.65012 -0.0464664 -0.0242082
-0.648221 -0.0464999 -0.0242293
-0.646323 -0.0465337 -0.0242501
-0.644425 -0.0465676 -0.0242706
-0.642527 -0.0466018 -0.0242908
-0.640628 -0.0466361 -0.0243107
-0.637503 -0.0466928 -0.0243436
-0.634378 -0.0467505 -0.0243758
-0.631253 -0.0468092 -0.0244078
-0.628128 -0.0468687 -0.0244396
-0.625003 -0.0469292 -0.0244712
-0.621877 -0.0469905 -0.0245041
-0.618752 -0.0470527 -0.0245357
-0.615627 -0.0471158 -0.0245672
-0.612502 -0.0471798 -0.0245987
-0.609377 -0.0472446 -0.02463
-0.606252 -0.0473099 -0.0246631
-0.603126 -0.0473761 -0.0246943
-0.600001 -0.0474428 -0.0247251
-0.596876 -0.0475102 -0.0247555
-0.593751 -0.0475782 -0.0247856
-0.590626 -0.0476467 -0.0248179
-0.5875 -0.0477157 -0.0248474
-0.584375 -0.0477851 -0.0248763
-0.581249 -0.0478551 -0.0249048
-0.578124 -0.0479255 -0.0249328
-0.574999 -0.0479961 -0.0249626
-0.571873 -0.0480674 -0.0249899
-0.568748 -0.0481393 -0.0250168
-0.565622 -0.0482117 -0.0250433
-0.562497 -0.0482847 -0.0250693
-0.559371 -0.0483584 -0.0250979
-0.556245 -0.0484323 -0.0251234
-0.55312 -0.0485062 -0.0251482
-0.549994 -0.0485801 -0.0251724
-0.546868 -0.048654 -0.0251959
-0.543742 -0.0487278 -0.025221
-0.540616 -0.0488026 -0.0252442
-0.537489 -0.0488787 -0.0252672
-0.534363 -0.0489559 -0.0252901
-0.531237 -0.0490342 -0.0253129
-0.52811 -0.0491138 -0.0253384
-0.524984 -0.049195 -0.0253622
-0.521858 -0.0492795 -0.0253868
-0.518731 -0.0493671 -0.0254123
-0.515604 -0.0494579 -0.0254387
-0.512478 -0.0495507 -0.0254671
-0.509352 -0.0496453 -0.0254943
-0.506225 -0.0497405 -0.0255212
-0.503099 -0.0498363 -0.025548
-0.499973 -0.0499326 -0.0255744
-0.496847 -0.0500297 -0.0256028
-0.493721 -0.0501259 -0.0256284
-0.490594 -0.05022 -0.0256525
-0.487468 -0.0503119 -0.0256752
-0.484343 -0.0504018 -0.0256963
-0.481217 -0.0504913 -0.0257169
-0.478092 -0.0505804 -0.0257363
-0.474967 -0.0506683 -0.0257545
-0.471842 -0.050755 -0.0257717
-0.468717 -0.0508406 -0.025788
-0.465593 -0.0509245 -0.0258053
-0.462469 -0.0510103 -0.02582
-0.459346 -0.0510962 -0.0258339
-0.456222 -0.0511817 -0.0258471
-0.453098 -0.051267 -0.0258599
-0.449974 -0.0513521 -0.025873
-0.44685 -0.0514385 -0.0258841
-0.443726 -0.051525 -0.0258944
-0.440602 -0.0516111 -0.0259045
-0.437478 -0.0516958 -0.0259149
-0.434355 -0.0517768 -0.0259278
-0.431232 -0.0518617 -0.0259381
-0.428109 -0.0519473 -0.0259476
-0.424986 -0.0520324 -0.0259568
-0.421863 -0.0521167 -0.0259661
-0.41874 -0.0521994 -0.0259765
-0.415616 -0.0522838 -0.0259853
-0.412493 -0.0523684 -0.0259935
-0.409369 -0.0524525 -0.0260014
-0.406245 -0.0525352 -0.0260094
-0.403122 -0.0526129 -0.0260193
-0.399999 -0.0526958 -0.0260259
-0.396876 -0.0527799 -0.0260315
-0.393753 -0.0528635 -0.0260366
-0.39063 -0.0529463 -0.0260417
-0.387506 -0.0530265 -0.0260479
-0.384383 -0.0531094 -0.0260521
-0.381259 -0.0531927 -0.0260557
-0.378136 -0.0532757 -0.0260589
-0.375012 -0.0533575 -0.0260622
-0.371888 -0.0534331 -0.0260679
-0.368765 -0.0535154 -0.0260708
-0.365642 -0.0535987 -0.0260727
-0.362519 -0.0536818 -0.0260743
-0.359395 -0.0537641 -0.0260758
-0.356271 -0.0538429 -0.0260784
-0.353147 -0.0539253 -0.0260793
-0.350023 -0.054008 -0.0260796
-0.346899 -0.0540905 -0.0260797
-0.343775 -0.0541719 -0.0260798
-0.340652 -0.0542462 -0.0260823
-0.337528 -0.0543278 -0.0260824
-0.334405 -0.05441 -0.0260821
-0.331281 -0.0544921 -0.0260816
-0.328157 -0.0545737 -0.0260811
-0.325033 -0.0546514 -0.0260817
-0.321909 -0.0547332 -0.0260814
-0.318785 -0.0548152 -0.0260811
-0.31566 -0.0548971 -0.0260808
-0.312536 -0.0549788 -0.0260805
-0.309412 -0.0550528 -0.0260824
-0.306288 -0.0551345 -0.0260835
-0.303164 -0.055216 -0.0260843
-0.30004 -0.0552973 -0.0260848
-0.296915 -0.0553785 -0.0260853
-0.29379 -0.0554556 -0.0260852
-0.290665 -0.0555367 -0.026084
-0.28754 -0.055618 -0.0260824
-0.284415 -0.0556987 -0.0260804
-0.28129 -0.055779 -0.0260781
-0.278164 -0.0558525 -0.0260769
-0.275038 -0.0559324 -0.0260744
-0.271911 -0.0560115 -0.0260715
-0.268785 -0.0560897 -0.0260682
-0.265659 -0.0561678 -0.0260644
-0.262528 -0.0562423 -0.0260602
-0.259398 -0.0563208 -0.0260532
-0.256267 -0.0564006 -0.0260447
-0.253137 -0.0564807 -0.0260315
-0.250006 -0.0565611 -0.0260136
-0.247002 -0.0566365 -0.0259941
-0.243999 -0.0567152 -0.0259739
-0.240996 -0.0567939 -0.0259531
-0.237993 -0.0568727 -0.0259318
-0.235216 -0.0569453 -0.0259123
-0.235053 -0.0569496 -0.0259112
-0.234891 -0.0569538 -0.0259101
-0.234728 -0.0569581 -0.0259091
-0.234566 -0.0569623 -0.025908
-0.234404 -0.0569665 -0.0259069
-0.23128 -0.057048 -0.0258861
-0.228156 -0.0571268 -0.0258671
-0.225032 -0.0572036 -0.0258522
-0.221909 -0.0572791 -0.0258449
-0.218786 -0.0573533 -0.025845
-0.215662 -0.0574235 -0.025851
-0.212537 -0.0574924 -0.0258614
-0.209412 -0.0575586 -0.0258761
-0.206288 -0.0576223 -0.0258951
-0.203163 -0.0576833 -0.0259165
-0.200038 -0.0577405 -0.0259374
-0.196913 -0.0577957 -0.0259594
-0.193788 -0.0578489 -0.0259834
-0.190663 -0.0579 -0.0260107
-0.187538 -0.057949 -0.0260414
-0.184407 -0.0579958 -0.0260746
-0.181277 -0.0580412 -0.0261081
-0.178146 -0.058086 -0.0261414
-0.175015 -0.0581302 -0.0261745
-0.171884 -0.0581737 -0.0262074
-0.168757 -0.0582179 -0.0262402
-0.16563 -0.0582628 -0.0262714
-0.162502 -0.0583078 -0.0263002
-0.159375 -0.0583528 -0.0263255
-0.156248 -0.0583979 -0.0263473
-0.153123 -0.0584422 -0.0263661
[...]
POINT_DATA 1006
 FIELD attributes 1
U 3 1006 float
30.6335 	0.938028 	-3.90342 30.6362 	0.939375 	-3.90244 30.639 	0.940722 	-3.90146 30.6418 	0.942068 	-3.90048 30.4203 	0.938924 	-3.8614 30.1205 	0.934211 	-3.80904 30.6535 	0.95118 	-3.88732 30.6559 	0.954323 	-3.88033 30.6583 	0.957466 	-3.87335 30.6606 	0.960608 	-3.86638 30.663 	0.963751 	-3.85942 30.6853 	0.976076 	-3.81184 30.7072 	0.98854 	-3.76456 30.729 	1.00114 	-3.71756 30.7504 	1.01389 	-3.67085 30.7448 	1.04603 	-3.65901 30.7676 	1.01739 	-3.62985 30.7683 	1.02695 	-3.59403 30.7674 	1.03665 	-3.5578 30.7663 	1.04651 	-3.52172 30.7664 	1.03471 	-3.48597 30.7898 	1.04938 	-3.49297 30.7657 	1.05137 	-3.50246 30.7462 	1.05354 	-3.51101 30.7613 	1.05721 	-3.51276 30.7363 	1.07534 	-3.51703 30.7732 	1.04043 	-3.5378 30.8007 	1.03959 	-3.52675 30.8281 	1.03878 	-3.5158 30.0663 	1.00665 	-3.39899 26.9618 	0.946564 	-2.9252 28.7759 	0.949823 	-3.17527 29.7287 	0.978759 	-3.25735 30.6739 	1.00745 	-3.33863 31.0071 	1.01826 	-3.3405 31.0316 	1.02002 	-3.30358 31.0358 	1.0198 	-3.29635 31.04 	1.01958 	-3.28914 31.0442 	1.01936 	-3.28194 31.0483 	1.01915 	-3.27474 31.0507 	1.0141 	-3.27355 31.0658 	1.00091 	-3.24578 31.0732 	0.982801 	-3.22388 31.0805 	0.964631 	-3.20215 31.0877 	0.946405 	-3.18057 31.1043 	0.938839 	-3.15676 31.109 	0.933462 	-3.15472 31.1149 	0.932837 	-3.15014 31.1209 	0.932214 	-3.14558 31.1268 	0.93159 	-3.14103 31.0751 	0.929612 	-3.1296 29.298 	0.884063 	-2.89815 27.5107 	0.838391 	-2.66569 25.712 	0.792582 	-2.4321 23.9002 	0.746617 	-2.19721 22.9047 	0.676652 	-2.03945 23.3425 	0.722527 	-2.20364 23.1699 	0.691028 	-2.1741 23.9985 	0.714805 	-2.25089 24.8266 	0.738557 	-2.32763 23.57 	0.638614 	-2.08823 26.5327 	0.771918 	-2.43979 27.3795 	0.781003 	-2.48629 28.2123 	0.789579 	-2.53144 29.0319 	0.797676 	-2.57533 26.8158 	0.611363 	-2.31843 29.694 	0.779838 	-2.59316 30.3773 	0.761403 	-2.6252 31.0424 	0.742375 	-2.65563 31.331 	0.708482 	-2.64064 28.5351 	0.551951 	-2.24941 31.3415 	0.622959 	-2.57369 31.3474 	0.581878 	-2.53976 31.353 	0.54091 	-2.50636 31.3585 	0.500052 	-2.47347 31.3631 	0.463508 	-2.44443 31.3635 	0.453854 	-2.43941 31.3639 	0.44418 	-2.43441 31.3642 	0.434484 	-2.42943 31.3648 	0.425186 	-2.42986 31.3604 	0.388227 	-2.42703 30.1999 	0.418393 	-2.29481 27.6247 	0.398183 	-2.02942 25.0284 	0.378213 	-1.76245 22.4066 	0.358538 	-1.49357 21.7189 	0.218245 	-1.43685 24.0354 	0.229337 	-1.81022 23.1363 	0.200292 	-1.74905 23.763 	0.162244 	-1.77995 24.524 	0.124113 	-1.82268 20.3824 	0.0435251 	-1.30553 26.1556 	0.0132109 	-1.88937 26.886 	-0.0149908 	-1.89056 27.5916 	-0.0432457 	-1.88986 28.0796 	-0.0590789 	-1.89658 23.932 	-0.128 	-1.44008 28.5478 	-0.141501 	-1.84279 28.8262 	-0.16037 	-1.81591 29.205 	-0.186843 	-1.77807 29.5553 	-0.213082 	-1.73865 24.9013 	-0.186055 	-1.2681 29.924 	-0.313838 	-1.65511 30.1694 	-0.339477 	-1.60531 30.3867 	-0.364853 	-1.55395 30.5763 	-0.389969 	-1.50105 27.2557 	-0.345338 	-1.15655 30.7918 	-0.438409 	-1.4133 30.9653 	-0.460817 	-1.35919 31.1121 	-0.482788 	-1.3041 31.2328 	-0.504326 	-1.24804 27.7426 	-0.427155 	-0.937544 31.3946 	-0.559397 	-1.14895 31.5165 	-0.571034 	-1.10452 31.6191 	-0.582359 	-1.05942 31.6888 	-0.592907 	-1.01266 29.2762 	-0.517062 	-0.788991 31.6559 	-0.602309 	-0.914945 31.6387 	-0.597941 	-0.868595 31.6211 	-0.593885 	-0.822871 31.6032 	-0.590137 	-0.777767 29.8998 	-0.525231 	-0.636646 31.5602 	-0.576695 	-0.690396 31.5386 	-0.569588 	-0.652158 31.5167 	-0.562712 	-0.614402 31.4945 	-0.556065 	-0.577122 30.8761 	-0.528955 	-0.504639 31.4524 	-0.545834 	-0.516799 31.4339 	-0.543259 	-0.496582 31.4153 	-0.540781 	-0.476567 31.3965 	-0.538398 	-0.456752 31.3722 	-0.535466 	-0.431608 31.3697 	-0.535278 	-0.429085 31.3671 	-0.535091 	-0.426567 31.3646 	-0.534905 	-0.424051 31.362 	-0.53472 	-0.42154 31.3594 	-0.534844 	-0.42114 31.339 	-0.535295 	-0.402513 31.3183 	-0.536125 	-0.386054 31.2973 	-0.537274 	-0.37142 31.2757 	-0.53925 	-0.361772 31.2524 	-0.542582 	-0.359063 31.2481 	-0.543346 	-0.352117 31.2407 	-0.545477 	-0.350817 31.2332 	-0.54761 	-0.349521 31.2257 	-0.549746 	-0.348231 31.2184 	-0.551824 	-0.34698 31.2083 	-0.554802 	-0.342069 31.1981 	-0.557786 	-0.337155 31.1879 	-0.560777 	-0.332239 31.1777 	-0.563774 	-0.327321 31.1644 	-0.565599 	-0.327845 31.1567 	-0.575475 	-0.320787 31.1454 	-0.584427 	-0.318751 31.134 	-0.593386 	-0.316687 31.1226 	-0.602352 	-0.314598 31.1048 	-0.610182 	-0.32777 31.1082 	-0.619425 	-0.314448 31.1035 	-0.627944 	-0.313751 31.0987 	-0.636468 	-0.313032 31.0939 	-0.644996 	-0.312288 31.0728 	-0.648924 	-0.329124 31.0885 	-0.658205 	-0.309949 31.0856 	-0.664128 	-0.306346 31.0828 	-0.670059 	-0.302731 31.0799 	-0.676 	-0.299106 31.059 	-0.681038 	-0.321045 31.0748 	-0.685677 	-0.292923 31.0692 	-0.690432 	-0.287911 31.0635 	-0.695198 	-0.282894 31.0578 	-0.699974 	-0.27787 31.0203 	-0.700738 	-0.296164 31.0486 	-0.708712 	-0.271444 31.0415 	-0.713889 	-0.267072 31.0342 	-0.719075 	-0.262694 31.027 	-0.72427 	-0.258309 30.9932 	-0.73083 	-0.283705 31.0158 	-0.733287 	-0.252738 31.0047 	-0.73297 	-0.246225 30.9936 	-0.732663 	-0.239719 30.9824 	-0.732366 	-0.23322 30.9301 	-0.730377 	-0.248688 30.9668 	-0.741315 	-0.228972 30.9539 	-0.752702 	-0.227908 30.941 	-0.764092 	-0.226822 30.9281 	-0.775483 	-0.225716 30.8821 	-0.785863 	-0.251698 30.9187 	-0.803424 	-0.235075 30.9178 	-0.834987 	-0.243792 30.9171 	-0.866523 	-0.252446 30.9165 	-0.898033 	-0.261035 30.8621 	-0.916061 	-0.279691 30.9234 	-0.935738 	-0.269146 30.9331 	-0.941745 	-0.266749 30.9428 	-0.947757 	-0.264346 30.9524 	-0.953776 	-0.261937 30.919 	-0.960582 	-0.281048 30.9708 	-0.952443 	-0.253477 30.974 	-0.932267 	-0.23899 30.9766 	-0.911305 	-0.224361 30.979 	-0.890367 	-0.209776 30.9125 	-0.885764 	-0.203546 30.9891 	-0.883665 	-0.191667 30.9791 	-0.87123 	-0.180985 30.969 	-0.858799 	-0.170328 30.9573 	-0.848083 	-0.161823 30.8894 	-0.829639 	-0.171192 30.9559 	-0.850695 	-0.145579 30.9566 	-0.851061 	-0.137132 30.9451 	-0.847364 	-0.130942 30.9143 	-0.843617 	-0.126745 30.8184 	-0.839706 	-0.129272 30.9057 	-0.854915 	-0.110004 30.9232 	-0.856113 	-0.10218 30.9113 	-0.851408 	-0.0991817 30.8791 	-0.837595 	-0.103427 30.7949 	-0.79868 	-0.126892 30.8778 	-0.839193 	-0.102025 30.8948 	-0.847432 	-0.0933663 30.8858 	-0.841679 	-0.0912533 30.8507 	-0.83241 	-0.0922459 30.7449 	-0.813588 	-0.101675 30.8512 	-0.833952 	-0.0874805 30.8715 	-0.835917 	-0.0812327 30.8616 	-0.831397 	-0.0777913 30.8307 	-0.816352 	-0.0791475 30.7299 	-0.764257 	-0.0970272 30.828 	-0.818831 	-0.0657231 30.8441 	-0.829851 	-0.0546981 30.8317 	-0.82578 	-0.0505956 30.7951 	-0.8162 	-0.0499493 30.6725 	-0.787108 	-0.061548 30.7875 	-0.817618 	-0.0412989 30.8007 	-0.821294 	-0.034863 30.7875 	-0.818169 	-0.0318321 30.757 	-0.80526 	-0.0324891 30.6399 	-0.742119 	-0.0564181 30.7489 	-0.809587 	-0.0279216 30.7584 	-0.820378 	-0.0190491 30.7449 	-0.817888 	-0.0157064 30.712 	-0.809503 	-0.0149646 30.5763 	-0.771494 	-0.0255971 30.7012 	-0.810069 	-0.00810987 30.7053 	-0.812659 	-0.00353908 30.6912 	-0.810024 	-0.000844621 30.6647 	-0.799647 	-0.00100238 30.5334 	-0.726455 	-0.024268 30.6525 	-0.800366 	-0.00108521 30.6534 	-0.806659 	0.00311579 30.6398 	-0.805062 	0.00469787 30.6139 	-0.799937 	0.00456779 30.467 	-0.7573 	-0.00578742 30.6015 	-0.801979 	0.00358127 30.5968 	-0.802889 	0.00288941 30.5866 	-0.801897 	0.00286556 30.5734 	-0.798858 	0.00253478 30.4352 	-0.720993 	-0.0184292 30.5694 	-0.799672 	-0.0100808 30.5614 	-0.797474 	-0.00788338 30.5525 	-0.794787 	-0.00573287 30.5417 	-0.79434 	-0.00449972 30.3929 	-0.748958 	0.000771077 30.5332 	-0.793291 	0.0116991 30.5212 	-0.793228 	0.0156773 30.5139 	-0.788638 	0.0194167 30.5066 	-0.784027 	0.0231471 30.3703 	-0.713503 	0.0111451 30.4917 	-0.779372 	0.0242534 30.4871 	-0.771094 	0.0281734 30.4824 	-0.762789 	0.0320804 30.4675 	-0.760624 	0.0375271 30.3502 	-0.722355 	0.0411311 30.4318 	-0.763783 	0.0674257 30.4037 	-0.774749 	0.0827579 30.3838 	-0.777442 	0.128144 30.3624 	-0.779924 	0.173428 30.2887 	-0.760557 	0.19658 30.3004 	-0.793582 	0.204308 30.268 	-0.793275 	0.209289 30.2356 	-0.79293 	0.214283 30.2059 	-0.790592 	0.212072 30.1812 	-0.786576 	0.203136 30.1794 	-0.787127 	0.202425 30.1776 	-0.787678 	0.201714 30.1757 	-0.788229 	0.201003 30.1739 	-0.788779 	0.200292 30.0965 	-0.784783 	0.200601 30.156 	-0.761191 	0.183639 30.1328 	-0.740417 	0.143079 30.1015 	-0.727684 	0.0707038 30.073 	-0.714428 	-0.00132068 28.9557 	-0.6508 	-0.0558746 30.0673 	-0.662344 	-0.0996499 30.0776 	-0.637771 	-0.141295 30.0893 	-0.613069 	-0.182968 30.0991 	-0.587442 	-0.205903 28.6231 	-0.524618 	-0.192191 30.1165 	-0.531774 	-0.212122 30.1306 	-0.512573 	-0.230757 30.1527 	-0.493152 	-0.263495 30.1758 	-0.473714 	-0.296173 28.7312 	-0.428705 	-0.304694 30.2198 	-0.438762 	-0.323447 30.2465 	-0.432865 	-0.321889 30.2731 	-0.42696 	-0.320328 30.292 	-0.420867 	-0.31846 28.3378 	-0.401195 	-0.296717 30.3098 	-0.434274 	-0.302175 30.3229 	-0.436409 	-0.279589 30.3415 	-0.437053 	-0.245738 30.359 	-0.437725 	-0.211857 28.3877 	-0.40209 	-0.170318 30.3644 	-0.448186 	-0.17171 30.3644 	-0.446689 	-0.156192 30.3638 	-0.445233 	-0.140684 30.3609 	-0.444205 	-0.130244 28.0272 	-0.396068 	-0.106426 30.3484 	-0.438564 	-0.123091 30.3455 	-0.434222 	-0.117135 30.3463 	-0.430376 	-0.109002 30.3468 	-0.426549 	-0.100875 28.4235 	-0.378225 	-0.0835849 30.3512 	-0.422291 	-0.084786 30.3715 	-0.420451 	-0.0709698 30.3913 	-0.41865 	-0.057177 30.4027 	-0.413246 	-0.0479663 29.1158 	-0.380166 	-0.0313764 30.3942 	-0.401824 	-0.0422559 30.3794 	-0.393324 	-0.0490569 30.3648 	-0.384805 	-0.0558644 30.3571 	-0.378947 	-0.060544 30.3541 	-0.375029 	-0.0636736 30.3527 	-0.382236 	-0.0633826 30.3513 	-0.389448 	-0.0630874 30.3499 	-0.396662 	-0.0627879 30.3485 	-0.40388 	-0.0624842 30.2489 	-0.377968 	-0.0816877 30.2564 	-0.442044 	-0.142744 25.3829 	-0.38507 	-0.128503 19.7249 	-0.292789 	-0.0866192 20.7893 	-0.305123 	-0.0874233 19.4089 	-0.262928 	-0.0437092 22.1734 	-0.321354 	-0.0692274 22.3882 	-0.323251 	-0.0567323 22.5976 	-0.325067 	-0.0442123 22.8956 	-0.329801 	-0.0424413 20.209 	-0.27645 	0.0111689 23.3265 	-0.338684 	-0.0349568 23.303 	-0.336763 	-0.0306777 23.4122 	-0.333984 	-0.0187751 23.517 	-0.331145 	-0.00688151 20.9237 	-0.265435 	0.0297599 23.4999 	-0.305289 	0.0144078 23.537 	-0.300487 	0.0176587 23.5738 	-0.295683 	0.0208917 23.3608 	-0.290702 	0.0241405 20.8905 	-0.255031 	0.0562906 22.8439 	-0.281955 	0.0290127 22.6652 	-0.278704 	0.0305685 22.7116 	-0.276701 	0.0302736 22.7589 	-0.274712 	0.029968 21.2402 	-0.242528 	0.0423261 22.7376 	-0.268206 	0.0302005 22.7246 	-0.263324 	0.0297334 22.7132 	-0.258463 	0.0292477 22.578 	-0.254672 	0.0299599 21.1166 	-0.234059 	0.0471919 22.199 	-0.247137 	0.0333991 22.072 	-0.24294 	0.0330171 22.0122 	-0.235603 	0.0296168 21.9564 	-0.22831 	0.0261861 21.266 	-0.209821 	0.0277579 21.7815 	-0.213246 	0.0166668 21.6811 	-0.206025 	0.00964216 21.5866 	-0.198867 	0.00258776 21.4753 	-0.195036 	0.000278347 21.1198 	-0.191014 	0.00397103 21.2852 	-0.192571 	0.00167577 21.223 	-0.191992 	0.00224758 21.1605 	-0.191413 	0.00281984 21.0988 	-0.19059 	0.00298806 21.0418 	-0.188048 	0.000290787 21.0646 	-0.185184 	-0.00406684 21.0879 	-0.182326 	-0.00843 21.1116 	-0.179475 	-0.0127987 21.1357 	-0.176631 	-0.0171729 20.9383 	-0.171598 	-0.0221963 21.1964 	-0.168951 	-0.0273515 21.232 	-0.164136 	-0.0329618 21.2683 	-0.159334 	-0.0385839 21.3036 	-0.157644 	-0.0403024 21.1797 	-0.153563 	-0.0419143 21.3871 	-0.156288 	-0.0415226 21.4306 	-0.154778 	-0.0427721 21.4693 	-0.150397 	-0.046928 21.5082 	-0.146024 	-0.051092 20.582 	-0.134915 	-0.0554922 21.6015 	-0.138809 	-0.058942 21.648 	-0.136752 	-0.0620013 21.6948 	-0.134702 	-0.0650653 21.7565 	-0.13416 	-0.0658894 21.4711 	-0.128169 	-0.0684618 21.8865 	-0.13323 	-0.0671878 21.942 	-0.133277 	-0.0676986 21.9879 	-0.13349 	-0.0696 22.0343 	-0.133709 	-0.0715043 20.4464 	-0.125081 	-0.0722602 22.1433 	-0.133956 	-0.0716958 22.1895 	-0.134077 	-0.0718489 22.2357 	-0.134197 	-0.0720022 22.2823 	-0.134163 	-0.0719288 21.8099 	-0.125924 	-0.0770189 22.4025 	-0.132812 	-0.0716346 22.4603 	-0.132273 	-0.0712575 22.5144 	-0.130198 	-0.0700298 22.5674 	-0.128119 	-0.0688006 20.3782 	-0.11581 	-0.0697033 22.7082 	-0.120916 	-0.0678101 22.7745 	-0.117395 	-0.0658785 22.8393 	-0.113868 	-0.063944 22.9228 	-0.113103 	-0.063528 22.3261 	-0.104922 	-0.0686501 23.1028 	-0.107917 	-0.0637207 23.1882 	-0.10704 	-0.0633852 23.2513 	-0.103608 	-0.0618504 23.3131 	-0.100174 	-0.0603138 20.5475 	-0.093288 	-0.060192 23.4616 	-0.0928828 	-0.0586778 23.5192 	-0.0895474 	-0.0578098 23.5757 	-0.0862118 	-0.0569406 23.6524 	-0.0853072 	-0.0567592 22.8833 	-0.0804219 	-0.0626244 23.8254 	-0.0794053 	-0.0581996 23.9149 	-0.0780187 	-0.0585714 23.9743 	-0.0731232 	-0.0597307 24.0328 	-0.0682349 	-0.0608908 20.6383 	-0.0680683 	-0.0630337 24.1782 	-0.0551718 	-0.0707782 24.2329 	-0.047512 	-0.0728185 24.2864 	-0.039864 	-0.074857 24.35 	-0.037814 	-0.0754653 23.4062 	-0.0359834 	-0.0803935 24.5248 	-0.0221744 	-0.0850101 24.6317 	-0.019132 	-0.0857386 24.7023 	-0.00814983 	-0.0872625 24.7708 	0.00281087 	-0.088777 20.8513 	-0.0125023 	-0.0784113 24.9505 	0.030569 	-0.10088 25.0196 	0.0462203 	-0.1018 25.0854 	0.0618424 	-0.102697 25.1896 	0.0664944 	-0.103322 24.1598 	0.0592426 	-0.0997379 25.3806 	0.099313 	-0.121328 25.4996 	0.107816 	-0.12162 25.5488 	0.132719 	-0.121004 25.5926 	0.157543 	-0.120333 21.4874 	0.112559 	-0.089324 25.6897 	0.226417 	-0.151833 25.6832 	0.260098 	-0.151083 25.6695 	0.293655 	-0.150209 25.7711 	0.307325 	-0.150395 24.7154 	0.27353 	-0.121608 25.6619 	0.35607 	-0.186557 25.6419 	0.384703 	-0.15851 25.5767 	0.440612 	-0.104432 25.489 	0.496066 	-0.0502557 21.875 	0.422418 	0.0527239 24.8656 	0.675909 	-0.0162431 24.5679 	0.723951 	0.0360249 24.2435 	0.77131 	0.0885188 27.4976 	1.04335 	0.207971 30.594 	1.30136 	0.321241 30.721 	1.30958 	0.325481 30.8481 	1.3178 	0.329721 30.9752 	1.32602 	0.333963 30.9744 	1.32761 	0.331384 30.8679 	1.32372 	0.32316 31.0181 	1.31784 	0.333344 31.0069 	1.30182 	0.33767 31.0021 	1.31323 	0.343739 31.0008 	1.34076 	0.350917 30.9966 	1.3487 	0.353868 31.0275 	1.40102 	0.398255 31.0413 	1.42891 	0.438807 31.063 	1.45039 	0.477071 31.1012 	1.459 	0.510794 28.8065 	1.3062 	0.450234 31.1807 	1.53896 	0.588033 31.2353 	1.59147 	0.668485 31.2489 	1.63684 	0.740464 31.2445 	1.6795 	0.808847 31.2552 	1.60849 	0.95894 31.2906 	1.78059 	1.13413 31.2572 	1.82086 	1.19942 31.2409 	1.87955 	1.27628 31.216 	1.93295 	1.35368 31.0023 	1.82048 	1.3811 31.0401 	1.98576 	1.391 31.0097 	2.03762 	1.42382 30.959 	2.05704 	1.46327 30.9201 	2.00293 	1.48216 30.9018 	1.82891 	1.47182 30.8336 	2.00313 	1.57139 30.7777 	2.06951 	1.64508 30.722 	2.06264 	1.69893 30.6489 	2.03339 	1.75289 30.5021 	1.90383 	1.80722 30.5314 	2.04249 	1.80161 30.4611 	2.03213 	1.8121 30.3908 	2.01956 	1.82344 30.3598 	2.02171 	1.84376 30.3186 	1.91968 	1.83338 30.2332 	2.01115 	1.84222 30.1871 	2.00921 	1.82985 30.1246 	2.00015 	1.82407 30.0519 	1.98667 	1.82235 29.9756 	1.96071 	1.82478 29.965 	1.97075 	1.81781 29.9495 	1.96726 	1.81638 29.934 	1.96378 	1.81495 29.9185 	1.9603 	1.81352 29.9028 	1.95676 	1.81206 29.8345 	1.97337 	1.80173 29.7725 	1.99294 	1.78888 29.7177 	2.0159 	1.77313 29.6631 	2.03862 	1.75756 29.6028 	1.99435 	1.78034 29.5258 	2.06621 	1.71358 29.4464 	2.08588 	1.66424 29.3681 	2.10463 	1.61497 29.2789 	2.11675 	1.57581 29.2639 	1.95125 	1.49566 29.0885 	2.10961 	1.43391 29.0096 	2.12008 	1.3488 28.9422 	2.13776 	1.25684 28.8799 	2.13087 	1.16877 28.8349 	2.00651 	1.09986 28.7483 	2.10291 	0.949344 28.7103 	2.11895 	0.838025 28.6821 	2.12133 	0.732704 28.6591 	2.11882 	0.617667 28.7105 	1.98573 	0.484066 28.6293 	2.09885 	0.368198 28.6446 	2.10316 	0.245766 28.6613 	2.1086 	0.130454 28.6807 	2.11293 	0.0151336 28.7224 	2.07466 	-0.0863156 28.7477 	2.11547 	-0.222022 28.7982 	2.12086 	-0.322363 28.8511 	2.12528 	-0.422723 28.9093 	2.12651 	-0.529787 28.9738 	2.12281 	-0.64289 28.9761 	2.1241 	-0.646591 28.98 	2.12352 	-0.650178 28.9838 	2.12294 	-0.653766 28.9876 	2.12235 	-0.657354 28.9914 	2.12177 	-0.660944 29.0975 	2.10667 	-0.761617 29.194 	2.10012 	-0.845262 29.2864 	2.09743 	-0.92063 29.3803 	2.09418 	-0.995927 29.4571 	2.07846 	-1.10018 29.615 	2.09162 	-1.13084 29.7296 	2.08254 	-1.16486 29.8446 	2.07323 	-1.19893 29.9598 	2.06326 	-1.23359 30.0242 	2.02313 	-1.24068 30.1756 	2.03128 	-1.21444 30.2755 	2.01196 	-1.20927 30.3671 	1.98833 	-1.20984 30.4586 	1.96478 	-1.21059 30.4696 	1.89683 	-1.26749 30.6408 	1.91042 	-1.19459 30.7179 	1.87493 	-1.18737 30.7949 	1.83961 	-1.18034 30.8763 	1.80605 	-1.17363 30.9494 	1.75915 	-1.17645 31.039 	1.7327 	-1.14592 31.1035 	1.69251 	-1.12674 31.1579 	1.64827 	-1.10482 31.2119 	1.60428 	-1.08305 31.285 	1.54458 	-1.05351 31.286 	1.54388 	-1.05303 31.287 	1.54318 	-1.05255 31.288 	1.54248 	-1.05207 31.289 	1.54178 	-1.0516 31.2898 	1.541 	-1.05122 31.3541 	1.49146 	-1.01163 31.417 	1.44194 	-0.972617 31.479 	1.39258 	-0.934058 31.5488 	1.3537 	-0.903052 31.5937 	1.30824 	-0.889264 31.6753 	1.27835 	-0.845856 31.7284 	1.23391 	-0.81721 31.7514 	1.17175 	-0.782855 31.7734 	1.10963 	-0.748959 31.7762 	1.03612 	-0.724502 31.8504 	1.00363 	-0.65251 31.8758 	0.936234 	-0.599778 31.9046 	0.873548 	-0.550947 31.9512 	0.829233 	-0.515306 31.8143 	0.693104 	-0.565474 32.0225 	0.735918 	-0.413485 32.0926 	0.710886 	-0.350786 32.1149 	0.661263 	-0.304495 32.1055 	0.591943 	-0.280596 32.0615 	0.498987 	-0.300195 32.1572 	0.499818 	-0.187511 32.2113 	0.47325 	-0.105866 32.2286 	0.421608 	-0.0685345 32.1115 	0.309204 	-0.118491 31.9153 	0.159442 	-0.212917 32.1398 	0.183477 	-0.0541756 32.3174 	0.191654 	0.0748087 32.3241 	0.135176 	0.103289 32.2757 	0.054195 	0.0833552 32.217 	-0.0304751 	0.0486094 32.3044 	-0.0496249 	0.150002 32.3699 	-0.0784146 	0.234555 32.372 	-0.131502 	0.258041 32.2011 	-0.238324 	0.188148 31.9698 	-0.365891 	0.0867083 32.2371 	-0.339645 	0.256216 32.4081 	-0.341533 	0.372456 32.4158 	-0.405619 	0.403542 32.3768 	-0.487706 	0.409178 32.2925 	-0.573026 	0.383671 32.3879 	-0.601418 	0.488014 32.4261 	-0.666014 	0.56452 32.4239 	-0.741367 	0.609161 32.3727 	-0.82025 	0.618437 32.1413 	-0.975729 	0.556343 32.3767 	-0.926957 	0.72155 32.3686 	-0.980665 	0.761878 32.3565 	-1.04295 	0.818819 32.3449 	-1.10772 	0.883936 32.2458 	-1.18474 	0.897034 32.299 	-1.21004 	0.997226 32.2803 	-1.25564 	1.07028 32.2586 	-1.30257 	1.14072 32.2244 	-1.35778 	1.18723 32.0799 	-1.45772 	1.19055 32.1504 	-1.45831 	1.29471 32.1175 	-1.50701 	1.34511 32.1116 	-1.54165 	1.43307 32.1033 	-1.57704 	1.52021 32.0878 	-1.61425 	1.60307 32.0897 	-1.61507 	1.6075 32.0891 	-1.61629 	1.61241 32.0885 	-1.61752 	1.61732 32.0879 	-1.61874 	1.62222 32.0873 	-1.61994 	1.62704 32.1003 	-1.6459 	1.71786 32.1121 	-1.67247 	1.80808 32.1228 	-1.69967 	1.89772 32.1141 	-1.73919 	1.96168 31.9848 	-1.72187 	2.04536 32.1313 	-1.82099 	2.19163 32.1325 	-1.84627 	2.28342 32.069 	-1.85841 	2.36619 31.9559 	-1.86798 	2.43931 31.586 	-1.86161 	2.46179 31.8077 	-1.89738 	2.56963 31.7218 	-1.90291 	2.636 31.6437 	-1.90885 	2.70199 31.591 	-1.91526 	2.76742 31.4075 	-1.8864 	2.79724 31.4492 	-1.92466 	2.90517 31.4183 	-1.92145 	2.988 31.3851 	-1.91868 	3.07048 31.3112 	-1.91829 	3.14135 31.1219 	-1.91863 	3.19056 31.1541 	-1.9188 	3.28285 31.1045 	-1.91266 	3.36894 31.0771 	-1.90567 	3.46799 31.0477 	-1.89918 	3.56688 30.9937 	-1.88984 	3.65676 30.9891 	-1.88999 	3.6965 30.9733 	-1.88463 	3.73178 30.9573 	-1.87935 	3.76703 30.941 	-1.87413 	3.80225 30.9242 	-1.86891 	3.83799 30.9221 	-1.86805 	3.84434 30.92 	-1.86718 	3.8507 30.9179 	-1.86632 	3.85705 30.9158 	-1.86545 	3.8634 30.9119 	-1.86313 	3.86905 30.8755 	-1.85427 	3.9133 30.8375 	-1.84374 	3.95657 30.7988 	-1.83327 	3.99973 30.7599 	-1.82289 	4.04283 30.7267 	-1.79556 	4.0845 30.6872 	-1.79066 	4.17196 30.6102 	-1.76796 	4.2483 30.531 	-1.7455 	4.32435 30.4498 	-1.72329 	4.40013 30.3809 	-1.66107 	4.