# vtk DataFile Version 2.0
sampleSurface
ASCII
DATASET POLYDATA
POINTS 18239 float
7.37118e-05 -8.67362e-19 0.00245418
9.63548e-05 -4.33681e-19 -0.00548565
-0.00769806 -3.61401e-20 -0.00147063
0.00794388 0 -0.00158692
-0.00773518 7.22801e-20 0.0058872
0.00793362 0 0.00567492
-0.00364585 -4.33681e-19 0.00949261
0.00357675 0 0.00953232
-2.46316e-06 -4.33681e-19 0.0116078
-0.00772273 0 -0.00933631
-0.00197666 0 0.0120428
0.00786491 0 -0.00935682
0.00200081 0 0.0120951
-5.36449e-06 0 0.0124328
-0.00234888 4.33681e-19 0.0124008
0.00236663 4.33681e-19 0.0124564
-1.74039e-05 8.67362e-19 -0.013188
0.0120963 2.1684e-19 0.009396
-0.0120741 0 0.00966407
-0.015558 0 0.00259184
0.0157256 -4.33681e-19 0.00230339
-0.0154718 4.33681e-19 -0.00541726
0.0157243 -4.33681e-19 -0.0055977
0.0132846 -4.33681e-19 0.0123014
0.013665 -8.67362e-19 0.0119268
0.00791005 -1.4456e-19 -0.0163879
-0.0133933 0 0.0125481
-0.00778438 1.4456e-19 -0.0166214
-0.0137437 0 0.0122097
0.015671 4.33681e-19 0.0114686
-0.0156778 0 0.0117479
0.015668 0 0.0123255
-0.015681 0 0.0125176
-0.0155539 0 -0.0131551
0.0156306 0 -0.0131143
0.0191295 -2.1684e-19 0.00944697
0.0176898 0 0.0119661
-0.017569 -4.33681e-19 0.0121544
-0.0192721 4.33681e-19 0.00964984
-0.0179195 0 0.0124878
0.0180595 4.33681e-19 0.01234
7.17968e-05 1.0842e-19 -0.021994
-0.0232966 1.4456e-19 -0.00140161
0.0236024 2.89121e-19 -0.00173122
0.0236529 2.1684e-19 0.00470477
-0.0233759 -7.22801e-20 0.00605485
0.0235037 0 0.00679588
-0.0231601 0 -0.00933107
0.0235431 -4.69821e-19 -0.0093987
0.0156881 7.22801e-20 -0.0218273
0.00809462 4.33681e-19 -0.0256905
-0.00736353 8.67362e-19 -0.0261413
-0.0155647 3.61401e-20 -0.0225121
0.0235348 4.33681e-19 -0.016291
-0.0232773 0 -0.0168198
0.027923 0 0.00934127
-0.0278514 -4.33681e-19 0.00987277
7.58323e-05 -3.61401e-20 -0.0299653
-0.0311636 0 0.00273536
-0.03089 -8.67362e-19 -0.00549911
0.0289697 -4.33681e-19 0.0121552
0.0313541 4.33681e-19 0.00212258
0.029347 4.33681e-19 0.0117762
-0.0292135 0 0.0125974
0.0313532 -4.33681e-19 -0.00575138
-0.0295381 -4.33681e-19 0.0122929
0.0313174 0 0.0113089
-0.0307831 0 -0.0131362
-0.0313122 0 0.0118791
0.0313145 -4.33681e-19 0.0121694
0.0156907 0 -0.0297295
-0.0313167 0 0.0125703
0.0313247 0 -0.0131599
-0.0155614 3.61401e-20 -0.03046
0.00787564 0 -0.0337773
0.0235255 0 -0.0255749
-0.00772481 4.33681e-19 -0.034118
-0.0330406 0 0.0122396
0.0332879 4.33681e-19 0.0117972
-0.0333606 2.1684e-19 0.0125382
-0.0233948 -8.67362e-19 -0.0268943
0.0336536 0 0.012171
0.0346237 2.1684e-19 0.00936863
-0.0346626 -2.1684e-19 0.00989479
5.79873e-05 1.807e-20 -0.0378891
0.0312965 7.22801e-20 -0.0218455
-0.0311433 0 -0.0229178
-0.0390193 0 -0.00156665
0.0391935 -1.807e-19 -0.00186273
-0.0381468 1.4456e-19 -0.00944956
-0.0389377 0 0.00616431
0.0391748 -2.1684e-19 0.00444132
0.039142 2.1684e-19 0.00665929
0.0391963 -7.22801e-20 -0.00951071
0.015678 -3.61401e-20 -0.0376699
0.0234882 -4.33681e-19 -0.0336314
-0.0155725 -3.61401e-20 -0.038258
-0.0379996 0 -0.0170081
-0.0233795 4.33681e-19 -0.0345719
0.0391718 4.33681e-19 -0.0163177
0.0078662 -4.33681e-19 -0.0417652
-0.00774979 -8.67362e-19 -0.0420222
0.0313021 3.61401e-20 -0.0296718
-0.0311972 3.61401e-20 -0.0309365
0.0437374 0 0.00929172
-0.0436203 -2.1684e-19 0.0100544
4.40842e-05 0 -0.0458684
-0.0441645 8.67362e-19 -0.0131697
0.0446788 0 0.0119989
0.0450439 0 0.0116251
-0.0449381 2.1684e-19 0.0125565
-0.0466368 8.67362e-19 0.00286316
0.0391134 0 -0.0256174
-0.0452347 -2.1684e-19 0.012281
0.0469785 -4.33681e-19 0.00204148
-0.0468662 0 -0.00621121
0.0469785 -4.33681e-19 -0.00585833
-0.0390215 0 -0.0273976
0.0234815 4.33681e-19 -0.0416254
0.0469536 0 0.0111577
0.0156669 -1.807e-20 -0.04569
-0.0468371 0 0.0119074
-0.0233838 -4.33681e-19 -0.0423606
0.0469511 4.33681e-19 0.0120003
-0.0468437 0 0.0125273
-0.0155835 3.61401e-20 -0.0461389
0.0469479 -4.33681e-19 -0.0133452
0.0312953 3.61401e-20 -0.0375856
-0.0312058 1.807e-20 -0.0386643
-0.0484241 0 0.012225
0.0488558 0 0.0116306
-0.0487324 -2.1684e-19 0.012497
0.00785517 -4.33681e-19 -0.0497792
-0.00776557 8.67362e-19 -0.0499733
0.0492097 -4.33681e-19 0.011997
-0.0498686 4.33681e-19 0.0100733
0.0500966 6.50521e-19 0.00930639
0.050899 0 0.00431535
0.0391025 0 -0.0336186
0.0469135 0 -0.0220115
-0.0467018 -3.61401e-20 -0.0234239
-0.0390131 0 -0.0350342
3.38505e-05 3.61401e-20 -0.0538585
-0.0512022 0 -0.0175777
-0.054201 3.61401e-20 -0.00149426
-0.0534592 -2.1684e-19 -0.00987976
-0.0542603 4.33681e-19 0.0061529
0.0548491 -1.4456e-19 -0.00198023
0.0234741 4.33681e-19 -0.0496601
0.0547741 0 0.00653115
0.0312877 0 -0.0456027
-0.0233932 0 -0.0502255
0.0469174 -3.61401e-20 -0.029745
0.0548247 -1.4456e-19 -0.0096559
0.0156579 -3.61401e-20 -0.053718
-0.0312137 -1.807e-20 -0.0464534
-0.0155926 -1.807e-20 -0.0540591
-0.0468315 -5.42101e-20 -0.0314451
0.0390979 -4.33681e-19 -0.041585
0.0547886 1.4456e-19 -0.0164164
-0.0390158 0 -0.0427316
0.00784598 -4.33681e-19 -0.0577852
-0.00777652 0 -0.0579326
0.0588686 -4.33681e-19 0.00411351
-0.0589488 2.1684e-19 0.00985395
0.0469137 -1.807e-20 -0.0376053
0.0595582 2.1684e-19 0.00924969
0.0547318 -4.33681e-19 -0.0257431
-0.0468408 1.807e-20 -0.039098
-0.0546429 -4.33681e-19 -0.0279938
-0.0602611 2.1684e-19 0.0124037
0.0604206 2.1684e-19 0.0118249
-0.0616439 0 0.0027911
-0.0605866 0 0.0121041
2.59749e-05 9.03502e-21 -0.0618381
0.0607718 4.33681e-19 0.0114631
0.0312806 -1.807e-20 -0.0536388
-0.0619804 0 -0.00528884
0.0234672 0 -0.0576878
-0.0312208 9.03502e-21 -0.0542966
0.06261 0 0.00189917
-0.0234022 0 -0.0581209
0.0626023 -4.33681e-19 -0.00599037
0.0390931 0 -0.0496103
-0.0622721 0 0.0117006
-0.0622853 4.33681e-19 0.0123711
0.0625932 4.33681e-19 0.0110071
0.0156506 -2.71051e-20 -0.061729
0.0625913 -4.33681e-19 0.0118214
-0.0390224 8.67362e-19 -0.0505101
-0.0155999 -9.03502e-21 -0.0619874
0.0625645 -4.33681e-19 -0.0135243
-0.0621665 7.22801e-20 -0.0156893
0.0547224 0 -0.033693
-0.0546496 0 -0.0355218
-0.0640855 0 0.0120074
0.0643989 0 0.0114545
0.0469085 -1.807e-20 -0.0455918
-0.0645451 -4.33681e-19 0.0122964
0.0647381 -4.33681e-19 0.0118066
-0.0653819 2.1684e-19 0.00971543
0.0655265 -2.1684e-19 0.00926891
-0.0468454 -1.807e-20 -0.0467946
0.00783855 0 -0.065769
-0.00778486 8.67362e-19 -0.0658808
0.066223 4.33681e-19 0.00400193
0.0625328 0 -0.022217
0.0663849 0 -0.000122902
0.0664665 0 -0.00401655
0.0663749 4.33681e-19 -0.00796244
-0.0624031 0 -0.0243837
-0.0684482 3.61401e-19 -0.00137438
0.0547176 -4.33681e-19 -0.0416162
0.0312743 0 -0.0616614
0.0625366 3.61401e-20 -0.0298791
-0.031227 1.807e-20 -0.0621647
-0.0546502 8.67362e-19 -0.0431184
0.0390881 0 -0.0576383
-0.0690391 -1.4456e-19 -0.00941181
0.0234611 0 -0.0656911
1.98301e-05 0 -0.0697955
-0.02341 0 -0.0660212
0.0680567 4.33681e-19 -0.016699
-0.0390296 8.67362e-19 -0.0583357
-0.0624764 -3.61401e-20 -0.0320317
0.0704147 -4.33681e-19 -0.00212759
-0.070377 7.22801e-20 0.00628673
0.0704044 -4.33681e-19 0.00638664
0.046903 -5.42101e-20 -0.0536141
0.0704446 -5.78241e-19 -0.0110311
0.0156447 1.807e-20 -0.0697116
-0.0156058 9.03502e-21 -0.0699066
-0.0468501 1.807e-20 -0.0545569
0.0625342 1.807e-20 -0.0376851
-0.0703553 0 -0.0206487
0.0547137 -8.67362e-19 -0.0496146
-0.0624771 9.03502e-21 -0.0395433
0.00783262 0 -0.0737252
-0.00779135 0 -0.0738096
-0.0546532 -4.33681e-19 -0.0508098
0.0746484 -6.50521e-19 -9.52164e-05
0.0745729 -2.1684e-19 -0.00420408
0.0747995 4.33681e-19 0.00380443
-0.0747522 8.67362e-19 -0.00509123
0.0703507 -8.67362e-19 -0.0259036
0.0746586 4.33681e-19 -0.00792375
-0.0756133 0 0.00198615
-0.0702996 4.33681e-19 -0.0285822
0.0754303 4.33681e-19 0.00923154
0.0743657 4.33681e-19 -0.0156843
0.031269 -1.807e-20 -0.069656
0.0390834 -4.33681e-19 -0.0656463
-0.0755326 -4.33681e-19 0.0117887
-0.0312322 0 -0.0700382
-0.0390363 8.67362e-19 -0.0661816
-0.0760732 0 0.011315
0.0761916 -2.1684e-19 0.0116235
0.023456 -4.33681e-19 -0.0736639
0.0765201 0 0.0112815
0.0625302 1.807e-20 -0.0456313
0.0468977 -9.03502e-21 -0.061632
-0.0234163 0 -0.0739139
1.50353e-05 0 -0.0777276
-0.0468548 0 -0.0623602
0.0703435 0 -0.0338096
0.0782313 0 0.00176433
-0.0624776 -1.807e-20 -0.0471414
0.0782189 0 -0.0061263
-0.0702906 4.33681e-19 -0.0359874
0.0782239 0 0.0108453
0.0782225 0 0.0116093
0.01564 -4.51751e-21 -0.0776636
-0.0785413 -4.33681e-19 0.0106837
-0.0156104 1.35525e-20 -0.0778102
0.0781791 4.33681e-19 -0.0137543
0.0547098 8.67362e-19 -0.0576284
-0.0786045 0 0.0116907
-0.0778833 1.807e-20 -0.0165861
-0.0546581 0 -0.0585638
0.0799097 0 0.0112648
0.0802275 0 0.0115971
0.0781526 -7.22801e-20 -0.0224563
0.0809283 2.1684e-19 0.00924407
0.0815548 0 0.00370326
0.0816615 0 -7.71597e-05
0.0703393 -4.33681e-19 -0.0416875
-0.0810473 0 0.0112932
0.0817189 4.33681e-19 -0.00432931
0.0816269 0 -0.00792566
0.00782788 0 -0.0816536
-0.00779646 0 -0.0817171
-0.0821881 1.4456e-19 -0.00242121
-0.0783494 1.4456e-20 -0.0250895
-0.0817597 0 -0.00997125
0.0625257 -1.807e-20 -0.0536284
-0.0819357 4.33681e-19 0.00867046
-0.0816054 0 0.0118095
-0.0702847 4.33681e-19 -0.0434935
0.0821528 -8.67362e-19 -0.0118484
-0.0624799 -4.51751e-21 -0.0548233
0.0390792 8.67362e-19 -0.0736257
0.0818671 0 -0.0157172
-0.0834858 1.73472e-19 0.00486303
0.0312646 1.35525e-20 -0.0776192
-0.0390421 0 -0.0740329
0.0781578 -1.807e-20 -0.03004
-0.0312364 0 -0.0779073
0.046893 -9.03502e-21 -0.0696272
-0.0468591 2.25875e-20 -0.0701833
-0.0783465 1.807e-21 -0.0325464
0.0234519 0 -0.0816061
-0.0234214 4.33681e-19 -0.0817944
0.054706 8.67362e-19 -0.0656302
1.13418e-05 0 -0.0856352
-0.0546636 4.33681e-19 -0.0663528
0.0860349 -2.1684e-19 -0.00225115
0.0703359 0 -0.049653
0.0860328 2.1684e-19 0.00625408
0.0860212 -4.33681e-19 -0.0100616
0.0781563 -1.807e-20 -0.0377922
-0.0702846 4.33681e-19 -0.0511057
0.0156364 -9.03502e-21 -0.0855867
-0.015614 -4.51751e-21 -0.0856965
0.0625211 -9.03502e-21 -0.061632
0.0859776 -4.33681e-19 -0.0185236
-0.0785689 9.03502e-22 -0.0399633
-0.0624832 4.51751e-21 -0.0625616
-0.0859042 -8.67362e-19 -0.0212544
0.0859704 0 -0.0260744
0.00782419 8.67362e-19 -0.0895567
-0.0078004 -8.67362e-19 -0.0896043
[...]
POINT_DATA 18239
FIELD attributes 1
U 3 18239 float
9.83515 0.103452 0.139212
10.2539 0.199519 0.0562612
19.5821 0.267836 -0.0637865
18.1968 0.277385 -0.134064
15.8538 -0.0620376 0.305991
14.9758 -0.0338879 0.238757
12.1132 -0.0474003 0.233794
11.7463 -0.02658 0.187269
4.9073 0.0745445 0.0969672
20.3633 0.750434 -0.0654148
5.71755 0.149589 0.111908
19.2426 0.688195 -0.129914
5.72826 0.141927 0.0989486
0 0 0
0 0 0
0 0 0
10.9947 0.145336 0.000169804
11.8082 -0.0267202 0.188257
11.8688 -0.0464441 0.229078
10.4533 0.0988506 0.1629
9.05126 0.104264 0.105199
10.918 0.209855 0.0764012
9.51134 0.18864 0.0327859
0 0 0
5.76965 0.142952 0.0996634
21.3522 0.0463401 -0.34033
0 0 0
22.0496 0.351942 -0.282617
5.55716 0.145393 0.108769
4.93854 0.0746704 0.0866441
4.75614 0.0716993 0.0962165
0 0 0
0 0 0
11.4376 0.176298 0.0174517
10.474 0.130001 -0.0153785
11.387 -0.00728268 0.148239
5.80267 0.13423 0.0843951
5.47626 0.149082 0.105054
12.0662 -0.0720164 0.23516
0 0 0
0 0 0
30.2813 0.312173 -0.331781
20.6912 0.24734 -0.0410504
16.6082 0.282496 -0.155228
14.1471 -0.00904797 0.184171
16.4681 -0.0982884 0.320947
12.8897 -0.00824379 0.167802
21.1013 0.798116 -0.0259128
17.9098 0.639236 -0.121573
29.9745 0.228384 -0.282104
31.0256 0.247748 -0.0503061
31.212 0.284186 -0.315148
30.5471 0.454641 -0.437183
20.5801 0.156652 -0.295864
22.4971 0.420841 -0.278352
11.2157 -0.00717313 0.146009
11.475 -0.0684877 0.223637
31.5582 0.123727 -0.304161
10.8982 0.090492 0.170326
11.3715 0.218152 0.0848049
0 0 0
8.08237 0.0924955 0.0666902
5.68723 0.13156 0.0827162
0 0 0
8.63843 0.169122 0.0203127
5.10552 0.138989 0.0979418
4.81878 0.0670954 0.0639042
11.7363 0.193755 0.0157297
4.38363 0.0624264 0.0837058
0 0 0
31.412 0.11756 -0.284856
0 0 0
9.80599 0.135859 -0.0139818
31.7287 0.120133 -0.402876
31.9765 -0.0326283 -0.389415
30.8414 0.268152 -0.21278
32.081 -0.0164407 -0.456851
5.01525 0.136883 0.0994542
5.65892 0.105479 0.0454029
0 0 0
31.458 0.250834 -0.347165
0 0 0
10.8628 -0.0196507 0.0415115
11.4051 -0.0941728 0.230452
32.2011 -0.0883526 -0.410175
29.859 0.315674 -0.34694
30.7416 0.484752 -0.528001
21.4895 0.23346 0.029158
15.4118 0.246163 -0.150005
21.0204 0.843154 0.0159307
16.7686 -0.13846 0.338829
13.2863 -0.0240347 0.0507727
12.13 -0.0219429 0.0463539
16.7064 0.567151 -0.0755635
32.1192 -0.0932923 -0.417419
31.8738 -0.0274902 -0.505252
32.2751 -0.0895277 -0.456557
22.5875 0.489232 -0.33132
32.1704 -0.0365299 -0.491763
19.8009 0.246412 -0.232765
32.3492 -0.156102 -0.374396
32.4096 -0.148085 -0.421616
31.3343 0.137188 -0.408751
31.8484 0.091102 -0.455257
10.6079 -0.0191894 0.0405372
10.7779 -0.0889941 0.217779
32.4329 -0.174794 -0.376717
11.8186 0.216896 0.00239186
0 0 0
5.48818 0.102297 0.044033
0 0 0
11.0634 0.0824187 0.171214
30.8428 0.302445 -0.344616
4.64351 0.126737 0.0920825
7.88883 0.0855176 0.0345254
11.1428 0.217475 0.0870347
8.21085 0.154455 0.00639902
31.5735 0.20734 -0.454244
32.29 -0.157921 -0.404517
4.64041 0.0563556 0.0401645
32.3872 -0.177901 -0.371029
3.98487 0.0484649 0.0711182
32.4488 -0.155177 -0.455549
0 0 0
0 0 0
32.4701 -0.175606 -0.408941
9.18311 0.129174 -0.0197384
32.064 -0.0813079 -0.484142
32.326 -0.106331 -0.495963
4.57157 0.111534 0.101989
5.44133 0.0851712 0.0290964
0 0 0
32.4717 -0.197008 -0.343396
32.5035 -0.195254 -0.366898
0 0 0
10.4721 -0.114802 0.23695
10.3097 -0.0124752 0.00180208
12.9094 -0.0156209 0.00225649
31.84 0.000105299 -0.579014
29.8468 0.353249 -0.381759
30.8302 0.513846 -0.711545
32.2207 -0.0638527 -0.530386
32.4962 -0.206086 -0.340627
23.1583 0.632792 -0.486989
21.2658 0.234805 0.152061
21.6343 1.00512 0.00550268
16.8092 -0.184274 0.380337
14.4515 0.232761 -0.179108
32.4409 -0.198309 -0.362578
11.4705 -0.0138798 0.00200498
32.3565 -0.172344 -0.406293
32.5206 -0.200853 -0.390373
31.329 0.152477 -0.468556
15.6739 0.510981 -0.10382
32.4725 -0.206086 -0.338785
32.4924 -0.184716 -0.447437
32.5146 -0.208942 -0.360132
31.9231 0.0432588 -0.582934
32.2658 -0.141103 -0.450782
19.0509 0.228279 -0.246039
32.4727 -0.167606 -0.505259
32.4972 -0.213994 -0.319201
32.5129 -0.216018 -0.332475
12.2537 -0.0148275 0.00214188
11.1045 -0.121736 0.25126
32.0537 -0.066951 -0.519055
9.96858 -0.0120624 0.00174245
30.8449 0.300042 -0.368025
32.3467 -0.13217 -0.550688
31.6856 0.129304 -0.725721
0 0 0
0 0 0
11.0871 0.0549567 0.128526
4.94496 0.120643 0.110319
32.5018 -0.22152 -0.315225
5.21556 0.0816373 0.0278891
32.4577 -0.202778 -0.364842
11.3687 0.146365 0.0455344
32.4807 -0.213119 -0.330003
32.5234 -0.217386 -0.390576
7.20805 0.0809959 0.00571348
32.5217 -0.22155 -0.349935
7.58531 0.142352 -0.0144539
32.4324 -0.19001 -0.408431
4.27368 0.0330429 0.0541703
0 0 0
4.40995 0.0502036 0.0201952
32.4901 -0.219001 -0.313638
0 0 0
32.5293 -0.212377 -0.437279
32.511 -0.226163 -0.329587
8.66757 0.120212 -0.038954
28.9806 0.677715 -0.383377
31.8436 0.00566592 -0.583427
32.2314 -0.105917 -0.622707
5.2105 0.0711056 0.0590332
5.16746 0.0682928 0.00258128
32.3547 -0.162735 -0.439956
0 0 0
0 0 0
11.1374 -0.181141 0.131674
9.64323 -0.00426381 -0.045834
32.4986 -0.200588 -0.488469
32.4946 -0.225173 -0.2995
32.5024 -0.229805 -0.309355
11.912 -0.00526695 -0.0566174
29.8006 0.340629 -0.426783
13.3853 0.224812 -0.199611
13.6966 0.230042 -0.204254
13.9459 0.446016 -0.151817
31.1531 0.256924 -0.622911
19.7615 0.107361 0.074752
32.2784 -0.133392 -0.464786
32.4835 -0.215698 -0.32973
31.3209 0.149316 -0.496716
32.514 -0.234551 -0.353285
32.468 -0.189603 -0.543527
32.4774 -0.207882 -0.3587
21.516 0.0443319 -0.146822
32.4876 -0.222676 -0.305704
32.4958 -0.231025 -0.296947
32.5071 -0.236203 -0.326125
20.4139 0.244235 -0.324103
32.5223 -0.232889 -0.383863
32.0309 -0.0608428 -0.617015
13.1791 0.22135 -0.196537
16.5798 -0.269657 0.196017
10.5825 -0.00467912 -0.0502985
32.4613 -0.196783 -0.395959
15.261 0.488077 -0.166134
32.4911 -0.227019 -0.295321
32.4997 -0.236884 -0.308967
32.5241 -0.231373 -0.424358
32.0569 -0.0632531 -0.536025
31.1678 0.0531398 -0.237082
32.4456 -0.184484 -0.436865
32.3853 -0.182757 -0.562565
32.4918 -0.231524 -0.285945
32.4942 -0.237063 -0.292752
32.526 -0.230538 -0.466891
12.6773 0.212921 -0.189053
12.9142 0.2169 -0.192586
11.2587 -0.00497811 -0.0535125
11.2484 0.0688445 -0.0472209
30.8128 0.286176 -0.428332
13.1323 0.419997 -0.142961
10.9155 0.0357201 -0.0243441
31.8866 -0.0718559 -0.552356
9.18112 -0.00405948 -0.0436376
14.9109 0.164011 -0.221183
32.4902 -0.223325 -0.305939
32.4884 -0.218132 -0.324544
0 0 0
32.4996 -0.245115 -0.328896
32.505 -0.246605 -0.352784
7.53433 0.102818 0.0853615
0 0 0
32.4902 -0.228189 -0.290001
4.86603 0.0643092 0.00243071
32.3665 -0.158427 -0.463703
32.4892 -0.210863 -0.351712
32.4951 -0.24394 -0.307365
32.4913 -0.236925 -0.284791
32.512 -0.246928 -0.380106
31.8313 0.00530968 -0.606916
6.57298 0.0753546 -0.012549
32.5109 -0.228005 -0.500783
6.83137 0.128522 -0.026586
32.334 -0.198425 -0.563441
4.1151 0.0432843 0.00462636
0 0 0
32.4913 -0.23235 -0.283397
6.3314 0.0402366 -0.0493357
32.4912 -0.243117 -0.294667
8.0441 0.112594 -0.0522641
32.4901 -0.203067 -0.380209
0 0 0
30.13 0.0836606 -0.334578
32.5191 -0.248207 -0.408789
4.82483 0.053033 -0.00197019
0 0 0
29.7441 0.333647 -0.476561
8.91066 -0.00440784 -0.055682
10.9704 -0.00542672 -0.0685531
12.1778 0.202032 -0.181433
32.2858 -0.131293 -0.490609
7.78843 0.130135 -0.31802
12.4133 0.205939 -0.184942
12.6137 0.393645 -0.145127
32.4904 -0.236776 -0.277635
32.489 -0.242073 -0.282703
20.9134 0.0847912 -0.240783
31.5694 -0.0123455 -0.510603
23.0482 0.0765122 -0.330333
32.4754 -0.193036 -0.419854
13.3119 -0.21728 -0.369011
0 0 0
32.5117 -0.236057 -0.519499
14.6452 0.457046 -0.168501
32.5271 -0.249835 -0.444358
32.4944 -0.223816 -0.303467
14.5042 0.165839 -0.227731
20.3164 -0.46565 -0.491665
32.4942 -0.228285 -0.290673
32.4913 -0.253248 -0.329064
31.305 0.145757 -0.539641
32.4884 -0.250986 -0.311444
32.4977 -0.218827 -0.322605
32.4961 -0.255838 -0.351452
32.1761 -0.156638 -0.629246
32.4926 -0.232659 -0.279924
32.4864 -0.249132 -0.295707
32.5007 -0.21344 -0.343494
32.4879 -0.240871 -0.276356
32.5014 -0.259249 -0.374672
11.9571 0.198371 -0.178145
32.4594 -0.18272 -0.463567
9.75376 -0.00482489 -0.0609505
13.3626 0.417016 -0.153743
32.0547 -0.0603907 -0.567322
32.5388 -0.254332 -0.4727
32.4912 -0.236148 -0.274863
32.4845 -0.246904 -0.284778
32.5042 -0.206959 -0.370956
28.877 0.37927 -0.509812
32.4608 -0.236576 -0.600599
32.5118 -0.26182 -0.403338
31.2153 0.0875233 -0.525866
30.8003 0.282113 -0.476996
32.4882 -0.239781 -0.270309
32.4841 -0.244721 -0.274709
32.4995 -0.228231 -0.289261
32.3767 -0.155854 -0.49432
11.5342 0.191354 -0.171844
11.6708 0.193622 -0.17388
32.5034 -0.223943 -0.303207
32.4807 -0.257397 -0.313515
32.0448 -0.11687 -0.706131
10.3774 -0.0051334 -0.0648478
14.0348 0.437996 -0.161478
32.5071 -0.200335 -0.399115
11.8449 0.369654 -0.136282
32.4832 -0.260364 -0.331027
32.4972 -0.231772 -0.279749
32.4792 -0.254287 -0.299054
32.5412 -0.260589 -0.538509
10.7261 -0.175073 -0.297331
13.8597 0.15847 -0.217611
32.5248 -0.265264 -0.428698
32.507 -0.219458 -0.318936
8.49656 -0.00420299 -0.0530944
32.4866 -0.263873 -0.349099
31.8201 0.0112695 -0.645011
32.4938 -0.235246 -0.271533
0 0 0
32.4785 -0.251559 -0.285919
0 0 0
4.55837 0.0501042 -0.00186138
5.91333 0.0988047 -0.241455
32.4311 -0.236491 -0.675345
32.4838 -0.243193 -0.269721
27.3956 -0.0590167 -0.696485
32.5129 -0.214879 -0.339292
6.02481 0.0686411 -0.0214365
27.9294 0.181102 -0.694514
6.1644 0.115178 -0.0292134
32.4932 -0.268447 -0.375112
3.85309 0.0366658 -0.00542635
0 0 0
32.4899 -0.23849 -0.268007
32.4909 -0.190706 -0.44503
7.43777 0.106372 -0.0554994
32.4778 -0.248903 -0.277
30.3794 0.105727 -0.698325
4.58842 0.0548252 -0.109227
0 0 0
32.2917 -0.127257 -0.528326
32.5366 -0.273369 -0.485588
4.49553 0.0388954 -0.018386
32.5187 -0.210135 -0.361134
0 0 0
32.5571 -0.266325 -0.611919
29.6345 0.347356 -0.50621
32.5019 -0.274042 -0.400989
8.25515 -0.000266823 -0.0725276
5.60701 0.0829267 -0.18333
10.1132 -0.000326878 -0.0888518
11.1027 0.182647 -0.165834
11.2377 0.184868 -0.167851
11.3753 0.349791 -0.130934
31.7039 -0.0496523 -0.772532
9.07918 0.150634 -0.224371
0 0 0
32.5079 -0.22752 -0.289019
32.5029 -0.230828 -0.278249
32.4847 -0.241703 -0.264932
32.4783 -0.246488 -0.268906
32.4722 -0.262652 -0.316318
32.4711 -0.258944 -0.301006
32.5126 -0.224037 -0.30116
13.5485 0.416615 -0.155948
13.4657 0.168822 -0.218076
31.2648 0.154603 -0.577581
32.4744 -0.266749 -0.332325
32.4984 -0.234017 -0.27126
32.4702 -0.255702 -0.289252
32.4726 -0.180487 -0.495734
32.2632 -0.202533 -0.792929
32.5226 -0.204163 -0.390806
32.5189 -0.220084 -0.316699
32.4776 -0.271121 -0.353545
32.5578 -0.285158 -0.549893
32.493 -0.237153 -0.265232
32.5115 -0.279764 -0.443153
32.4702 -0.252769 -0.278434
32.0501 -0.0512345 -0.60291
32.4783 -0.244216 -0.264608
10.8222 0.178033 -0.161645
32.5252 -0.216051 -0.333656
8.99004 -0.000290576 -0.0789841
28.636 0.450634 -1.12374
32.4967 -0.268621 -0.711129
12.1408 0.373329 -0.139745
26.7418 0.281308 -1.16757
32.4827 -0.276356 -0.375538
32.4866 -0.239693 -0.262597
30.1544 0.189836 -0.986944
32.4699 -0.249613 -0.271152
28.6508 0.413831 -0.521451
32.5251 -0.197901 -0.422027
31.4742 0.0145318 -0.896755
32.5249 -0.288246 -0.490919
32.3882 -0.150393 -0.530493
32.5105 -0.229907 -0.278091
32.5325 -0.211864 -0.356242
32.4614 -0.263217 -0.304507
32.5167 -0.226867 -0.287398
30.6834 0.300363 -0.515288
32.5491 -0.286919 -0.623709
32.504 -0.232771 -0.270016
32.4611 -0.259469 -0.291616
32.4627 -0.267421 -0.318367
32.4874 -0.282854 -0.411433
32.4792 -0.242066 -0.261223
32.4709 -0.24657 -0.263366
32.1226 -0.180469 -0.955583
32.5237 -0.22378 -0.299658
32.4971 -0.235353 -0.264887
32.4605 -0.255731 -0.281592
32.4641 -0.27206 -0.337177
10.6041 0.174444 -0.158387
12.8701 0.395754 -0.148139
9.65311 -0.000312008 -0.0848097
10.313 0.169655 -0.154039
10.4215 0.32046 -0.119955
31.7976 0.0284945 -0.670423
12.756 0.159925 -0.206582
9.33745 0.154919 -0.230754
7.70706 -0.000249108 -0.0677123
32.5307 -0.220578 -0.313064
0 0 0
32.4895 -0.237811 -0.259001
32.4603 -0.252587 -0.273896
32.4514 -0.277524 -0.838039
32.4669 -0.277371 -0.357128
32.5093 -0.187075 -0.473766
32.5395 -0.207498 -0.381102
5.78693 0.0855877 -0.189212
0 0 0
4.14877 0.0358953 -0.0169678
32.5303 -0.296192 -0.55474
32.4942 -0.291234 -0.451829
32.5302 -0.296486 -0.555621
27.0973 0.404866 -1.18142
32.5279 -0.29657 -0.551578
32.4713 -0.246649 -0.258141
5.6087 0.0678775 -0.0271828
5.41459 0.103071 -0.0270833
32.3003 -0.117477 -0.569336
28.4977 0.347666 -1.16867
3.51975 0.0343433 -0.0136082
4.69967 0.077441 -0.139795
0 0 0
0 0 0
32.5387 -0.217017 -0.330278
6.82676 0.105449 -0.0489728
32.4816 -0.242584 -0.256103
32.461 -0.252352 -0.264252
32.4682 -0.282917 -0.385352
32.5467 -0.294766 -0.72046
30.4036 0.0945089 -1.03426
4.1046 0.0380618 -0.0231528
32.5104 -0.231473 -0.269704
32.5185 -0.229098 -0.276699
0 0 0
29.5528 0.383584 -0.52363
32.45 -0.26254 -0.295221
32.4508 -0.266977 -0.307008
5.93895 0.0690042 -0.236024
7.47779 0.0139909 -0.073052
32.5447 -0.20109 -0.413546
32.502 -0.233639 -0.265303
9.11026 0.202346 -0.331789
9.96034 0.170424 -0.149687
10.2476 0.175339 -0.154005
9.397 0.0175818 -0.0918012
10.0621 0.307449 -0.0971859
32.4506 -0.258067 -0.282412
32.5267 -0.226341 -0.286357
0 0 0
31.7647 -0.108647 -1.00783
32.4511 -0.271531 -0.323389
32.4968 -0.298399 -0.501104
32.4909 -0.174777 -0.52942
32.5466 -0.213378 -0.34915
12.4878 0.381565 -0.120614
31.2513 0.167626 -0.653814
32.494 -0.23784 -0.257098
12.5775 0.204616 -0.141894
32.4708 -0.289633 -0.417241
32.4498 -0.25737 -0.27302
32.5349 -0.223529 -0.297019
32.5363 -0.306864 -0.629642
32.4524 -0.276627 -0.340833
32.2693 -0.246755 -0.9574
32.474 -0.246112 -0.250039
32.4585 -0.253401 -0.25516
32.0431 -0.0333878 -0.664216
32.5436 -0.220753 -0.310512
32.452 -0.282152 -0.364678
32.4821 -0.24407 -0.249334
32.4512 -0.255961 -0.259597
32.4778 -0.300058 -0.827381
32.5558 -0.209104 -0.374645
32.5492 -0.193864 -0.448178
32.4624 -0.24956 -0.247713
26.3501 0.53779 -1.51551
9.63916 0.164928 -0.144861
28.4973 0.543949 -1.47752
8.11212 0.0151777 -0.0792489
32.5017 -0.305682 -0.551905
11.061 0.337969 -0.106834
32.4692 -0.298056 -0.460093
30.063 0.203408 -1.20447
32.4743 -0.246014 -0.245094
32.4497 -0.255259 -0.252265
32.5523 -0.217865 -0.325276
28.5808 0.513549 -0.419681
32.4012 -0.140223 -0.575653
32.5173 -0.230348 -0.266807
32.4374 -0.265621 -0.299838
32.5082 -0.234347 -0.260831
32.4524 -0.288225 -0.391418
32.4378 -0.264257 -0.285455
32.5271 -0.228131 -0.275929
32.4378 -0.269902 -0.311889
31.4045 -0.0348182 -1.08935
32.519 -0.312303 -0.713095
30.7938 0.2917 -0.639551
32.5368 -0.225811 -0.284319
32.4694 -0.242116 -0.242952
32.4532 -0.248444 -0.244611
32.4383 -0.275057 -0.327319
32.0886 -0.220984 -1.09551
32.565 -0.204373 -0.403036
32.4888 -0.241136 -0.24579
32.4374 -0.259568 -0.260307
32.4786 -0.241092 -0.239235
32.4445 -0.250364 -0.251984
32.4714 -0.305805 -0.500988
32.5622 -0.214462 -0.344351
32.5011 -0.237247 -0.251382
32.5466 -0.223431 -0.294899
32.4335 -0.264229 -0.272738
32.5323 -0.181231 -0.506215
12.2299 0.373686 -0.118124
32.4371 -0.280364 -0.347023
31.7797 0.0567479 -0.783841
10.1327 0.225055 -0.369026
32.4505 -0.294648 -0.422903
0 0 0
9.34605 0.159913 -0.140456
8.5645 0.0160241 -0.0836683
12.3077 0.200227 -0.138851
32.498 -0.315996 -0.622169
8.94996 0.153136 -0.134503
9.0242 0.275735 -0.0871612
32.4113 -0.309213 -0.949756
6.69124 0.0777451 -0.265921
6.77836 0.0126823 -0.0662191
32.5565 -0.22094 -0.306708
0 0 0
3.66925 0.0340249 -0.0206972
32.4363 -0.286338 -0.369283
32.3042 -0.100841 -0.63424
26.7209 0.645653 -1.54494
5.33924 0.102194 -0.199303
32.4563 -0.245424 -0.239896
0 0 0
4.93247 0.0662264 -0.0268977
4.67448 0.0907656 -0.0250172
32.5007 -0.319582 -0.805387
28.398 0.408108 -1.48335
6.57155 0.127475 -0.047542
32.5723 -0.210805 -0.365377
3.11126 0.0384946 -0.0146793
32.5721 -0.197224 -0.438225
0 0 0
32.5121 -0.236065 -0.253435
32.5257 -0.230601 -0.264708
32.4248 -0.267062 -0.28056
32.4697 -0.242344 -0.237206
32.443 -0.250227 -0.244088
32.4236 -0.269906 -0.299843
32.4486 -0.301671 -0.457526
32.5038 -0.238312 -0.247789
32.423 -0.266206 -0.270393
32.4675 -0.31369 -0.552527
30.2972 0.0703546 -1.26095
32.5358 -0.227235 -0.275902
32.4984 -0.235156 -0.244046
32.4248 -0.271934 -0.313377
32.4266 -0.257776 -0.259636
3.61884 0.0513201 -0.0235054
32.567 -0.218375 -0.321392
0 0 0
6.92126 0.094335 -0.290405
28.9196 0.715384 -0.875899
32.4332 -0.292261 -0.396092
9.84259 0.297522 -0.374517
32.5121 -0.166178 -0.57024
6.54217 0.0232567 -0.0619735
8.66893 0.150801 -0.164458
8.29475 0.0294869 -0.0785756
9.05855 0.157579 -0.171849
9.00431 0.271324 -0.0969114
31.7078 -0.157686 -1.16671
0 0 0
32.547 -0.225404 -0.282342
32.4924 -0.32835 -0.698614
32.4224 -0.277641 -0.332283
12.2131 0.368015 -0.131447
31.0906 0.271752 -0.911851
32.4849 -0.238271 -0.237282
32.4289 -0.25405 -0.251321
12.8171 0.538401 -0.234774
32.2173 -0.282951 -1.069
32.4341 -0.301639 -0.445113
32.5842 -0.206275 -0.393315
32.5582 -0.223388 -0.291562
32.4212 -0.283407 -0.350628
32.4427 -0.310386 -0.500895
32.5777 -0.215622 -0.337644
32.5095 -0.235157 -0.242257
32.4167 -0.260225 -0.271916
32.5778 -0.188869 -0.477251
32.4303 -0.29903 -0.425384
32.0603 0.00251362 -0.764183
32.4617 -0.323213 -0.609144
32.422 -0.327332 -0.91422
26.0591 0.927726 -1.81448
32.5697 -0.221265 -0.303158
32.4175 -0.289202 -0.373477
32.5221 -0.234292 -0.251206
32.4084 -0.270855 -0.284178
28.4245 0.679558 -1.89125
8.4551 0.147081 -0.160401
6.98991 0.0248484 -0.0662149
32.4399 -0.122476 -0.642724
10.609 0.319679 -0.114183
32.5006 -0.235865 -0.238614
32.4146 -0.259778 -0.260411
30.0078 0.203664 -1.51893
32.4631 -0.241758 -0.230811
32.4342 -0.249511 -0.23737
32.4658 -0.334053 -0.780754
32.5901 -0.212241 -0.358009
32.5454 -0.22815 -0.27012
32.5964 -0.201094 -0.424577
32.4074 -0.277535 -0.317984
32.4235 -0.306194 -0.459545
31.3321 -0.0948206 -1.28779
32.4354 -0.320109 -0.548283
9.46807 0.286201 -0.360266
32.5815 -0.218983 -0.315964
0 0 0
32.5369 -0.229955 -0.258247
32.414 -0.295429 -0.398255
6.63311 0.0904076 -0.278315
32.4026 -0.275755 -0.301065
32.5571 -0.225153 -0.2776
32.4141 -0.2997 -0.418793
32.4052 -0.280155 -0.337796
32.5715 -0.172673 -0.54803
32.0257 -0.263308 -1.20637
32.4497 -0.333931 -0.677466
20.8683 0.950515 -0.578291
31.7928 0.124736 -0.902768
5.08243 0.102186 -0.242
12.307 0.370843 -0.132458
32.3387 -0.339535 -1.03702
32.5698 -0.22345 -0.288419
12.9147 0.542499 -0.236561
32.4024 -0.285459 -0.354471
32.603 -0.208485 -0.380347
8.18151 0.142322 -0.155211
7.48584 0.0266113 -0.0709128
7.87255 0.136948 -0.149349
8.1739 0.246302 -0.087974
21.9706 0.486506 -0.7166
32.5942 -0.21654 -0.331586
32.4157 -0.313984 -0.496836
32.4072 -0.30241 -0.427047
32.3762 -0.0690263 -0.734074
5.38515 0.0191436 -0.0510131
32.6097 -0.192728 -0.464953
32.5191 -0.232493 -0.240532
32.3979 -0.263989 -0.272682
0 0 0
0 0 0
32.4362 -0.342023 -0.870784
32.4247 -0.32831 -0.59851
32.5344 -0.229519 -0.250312
2.91564 0.0413477 -0.0189379
9.03618 0.111119 -0.553361
32.3956 -0.268328 -0.286515
7.27858 0.135949 -0.528709
26.5862 0.631984 -1.78994
32.441 -0.24518 -0.221223
32.5827 -0.221701 -0.298415
32.5417 -0.232337 -0.254558
32.4957 -0.235214 -0.230724
4.31095 0.0630841 -0.0229148
32.4038 -0.258518 -0.25184
4.14627 0.0816301 -0.0288579
32.3904 -0.278151 -0.298768
28.3333 0.385585 -1.66461
32.3985 -0.291624 -0.375726
6.64681 0.14617 -0.0646128
2.46383 0.0372819 -0.0100316
0 0 0
32.5513 -0.230026 -0.26047
32.3905 -0.278494 -0.311677
30.2138 0.0325503 -1.39794
32.5705 -0.151914 -0.632178
2.86922 0.0443801 -0.0155331
32.3963 -0.296451 -0.395385
0 0 0
32.4338 -0.346713 -0.751048
5.17496 0.0237115 -0.0401957
32.6074 -0.213887 -0.348712
7.63434 0.136506 -0.147242
7.22321 0.0330965 -0.0561051
7.93761 0.141928 -0.153091
7.98517 0.228782 -0.158404
31.6385 -0.200788 -1.25986
32.6196 -0.203649 -0.410867
32.3995 -0.310097 -0.458432
32.4045 -0.322886 -0.539446
32.5961 -0.219687 -0.310567
32.5684 -0.225877 -0.273521
30.9824 0.348948 -1.00077
32.4728 -0.23834 -0.218018
32.4095 -0.253325 -0.23087
32.3864 -0.283198 -0.336049
32.3921 -0.2979 -0.39976